12
Lattice="12.61832051027394 0.0 0.0 6.3091602551369705 10.927786114991452 0.0 0.0 0.0 15.005377480737774" Properties=species:S:1:pos:R:3:tags:I:1:forces:R:3 energy=-66833.758373324 free_energy=-66833.758373324 stress="-0.0 -0.0 -0.0 -0.0 -0.0 -0.0 -0.0 -0.0 -0.0" pbc="T T T"
C        7.75389899       4.84501610      10.24451440        0      -0.01038468      -0.03143579      -0.03867623
C        8.91351282       4.06411410      10.17206122        0       0.00171484       0.01595176       0.00664262
C       10.16652404       4.67265659      10.00927431        0       0.01711417      -0.02185467      -0.06924462
C       10.20787488       6.06281163       9.91321994        0      -0.02664340       0.01557371       0.03062410
C        9.07506366       6.87052899      10.00843172        0       0.00384467      -0.01055199      -0.07457084
C        7.83252263       6.24029563      10.16740397        0       0.00461024       0.02575100       0.02300463
Br      11.92556503       6.92406265       9.50479739        0      -0.00402773      -0.00547241       0.02978966
H        6.78142948       4.36046024      10.32100122        0      -0.02946422      -0.00469530       0.01471603
H        8.84463384       2.97607631      10.19041185        0       0.03731078       0.00318900       0.03698795
H       11.07037795       4.07543064       9.89285389        0       0.01926378      -0.03828913       0.03535455
H        9.14758615       7.95156177       9.89357440        0      -0.02660709       0.04577083       0.03058255
H        6.92521718       6.84532418      10.18461295        0       0.02807969       0.00951708       0.03103832
