# LAMMPS data file written by OVITO Basic 3.4.4
19 atoms
3 atom types
-15 15 xlo xhi
-15 15 ylo yhi
-15 15 zlo zhi

Atoms  # atomic

1 1 -0.631332836 -0.086813974 0.0017463536
2 1 0.7527128138 -0.1415156672 -9.000628e-04
3 1 1.2275978147 1.1931190901 -0.0021325384
4 1 0.1182159392 2.0328530568 -2.453564e-04
5 3 -0.9972707384 1.2275892202 0.0021612108
6 2 -1.9267249569 1.6220063767 0.0036597149
7 2 -1.3683512232 -0.8760367495 0.003426618
8 2 1.3502225365 -1.042014288 -0.0018166749
9 2 2.2619489735 1.5067917877 -0.0042271551
10 1 -0.0442810631 3.4803353209 -4.072291e-04
11 1 1.051420276 4.3630484248 -0.0028485825
12 3 -1.3203238029 3.9261869373 0.0018954524
13 1 0.8121356774 5.7308610545 -0.0027141559
14 2 2.0641313263 3.9745230823 -0.0045784467
15 1 -1.5285292572 5.2457142768 0.0018556774
16 1 -0.5061634818 6.1933721757 -3.577655e-04
17 2 1.6432424884 6.430371059 -0.0052802482
18 2 -2.570369076 5.5621948544 0.0037972586
19 2 -0.7358942801 7.2535269016 -2.178902e-04
