LAMMPS (4 Feb 2025 - Development - patch_4Feb2025-446-g6f0a59372c)

# Initialization
units            metal
dimension        3
boundary         p p p
atom_style       atomic


read_data        argon.data
Reading data file ...
  orthogonal box = (0 0 0) to (50 50 50)
  1 by 1 by 1 MPI processor grid
  reading atoms ...
  38 atoms
  read_data CPU = 0.002 seconds

mass 1 39.948

# Lennard-Jones potential
pair_style lj/cut 8.5
pair_coeff 1 1 0.01042 3.405  8.5

# Temperature setup
velocity all create 5.0 293288
velocity all zero linear
velocity all zero angular

# CSVR thermostat with velocity-Verlet integration
variable mytemp equal 45

fix 1 all temp/csvr ${mytemp} ${mytemp} 0.1 12345
fix 1 all temp/csvr 45 ${mytemp} 0.1 12345
fix 1 all temp/csvr 45 45 0.1 12345

fix 2 all nve


# Thermodynamic output
thermo         1000
thermo_style   custom step temp pe ke etotal
thermo_modify  line one

# Restart settings
restart 5000000 restart.*

# Dumping structure
dump         2 all xyz 1000 structure_${mytemp}.xyz
dump         2 all xyz 1000 structure_45.xyz
dump_modify  2 element "Ar" sort id

# Neighbor list settings
neighbor     0.3 bin

run 1000000
Generated 0 of 0 mixed pair_coeff terms from geometric mixing rule
Neighbor list info ...
  update: every = 1 steps, delay = 0 steps, check = yes
  max neighbors/atom: 2000, page size: 100000
  master list distance cutoff = 8.8
  ghost atom cutoff = 8.8
  binsize = 4.4, bins = 12 12 12
  1 neighbor lists, perpetual/occasional/extra = 1 0 0
  (1) pair lj/cut, perpetual
      attributes: half, newton on
      pair build: half/bin/atomonly/newton
      stencil: half/bin/3d
      bin: standard
Per MPI rank memory allocation (min/avg/max) = 3.075 | 3.075 | 3.075 Mbytes
   Step          Temp          PotEng         KinEng         TotEng    
         0   4.9608862     -1.7950808      0.02372606    -1.7713548    
      1000   40.83279      -1.4262241      0.19528794    -1.2309362    
      2000   40.730816     -1.4678096      0.19480023    -1.2730094    
      3000   58.251999     -1.4273878      0.27859749    -1.1487903    
      4000   47.740336     -1.4132379      0.22832414    -1.1849137    
      5000   42.717166     -1.4314814      0.2043002     -1.2271812    
      6000   35.511908     -1.3659246      0.16984015    -1.1960845    
      7000   35.90751      -1.370465       0.17173217    -1.1987328    
      8000   42.631926     -1.3410863      0.20389253    -1.1371938    
      9000   47.296896     -1.3192522      0.22620334    -1.0930489    
     10000   45.405124     -1.3118039      0.2171557     -1.0946482    
     11000   44.206894     -1.2838508      0.21142501    -1.0724258    
     12000   45.177343     -1.2779383      0.21606631    -1.061872     
     13000   46.436239     -1.3249544      0.22208714    -1.1028673    
     14000   34.15006      -1.3556943      0.16332694    -1.1923674    
     15000   37.365024     -1.3582733      0.17870291    -1.1795704    
     16000   43.42036      -1.3259808      0.20766331    -1.1183175    
     17000   33.836401     -1.327936       0.16182683    -1.1661092    
     18000   36.313864     -1.3730814      0.17367561    -1.1994058    
     19000   44.933835     -1.3389421      0.2149017     -1.1240404    
     20000   33.769051     -1.3038823      0.16150472    -1.1423776    
     21000   43.804445     -1.3306414      0.20950025    -1.1211412    
     22000   44.46376      -1.3227725      0.2126535     -1.110119     
     23000   37.647578     -1.3429989      0.18005426    -1.1629446    
     24000   34.478025     -1.365246       0.16489548    -1.2003506    
     25000   39.55817      -1.347192       0.18919191    -1.158        
     26000   41.213186     -1.2941946      0.19710723    -1.0970873    
     27000   50.719814     -1.3443313      0.24257387    -1.1017574    
     28000   45.372969     -1.3393854      0.21700191    -1.1223835    
     29000   55.487794     -1.3271084      0.26537733    -1.0617311    
     30000   42.362646     -1.3436908      0.20260466    -1.1410862    
     31000   33.49542      -1.3870366      0.16019605    -1.2268405    
     32000   36.791987     -1.3426736      0.17596229    -1.1667114    
     33000   50.926551     -1.3680704      0.24356262    -1.1245078    
     34000   60.918695     -1.4113622      0.2913513     -1.1200109    
     35000   46.735144     -1.3432106      0.22351669    -1.1196939    
     36000   47.147876     -1.4171412      0.22549063    -1.1916506    
     37000   52.019004     -1.3876887      0.24878741    -1.1389013    
     38000   41.664313     -1.2916949      0.1992648     -1.0924301    
     39000   41.556553     -1.2884704      0.19874942    -1.0897209    
     40000   45.399501     -1.3964454      0.21712881    -1.1793166    
     41000   39.819996     -1.3786007      0.19044412    -1.1881565    
     42000   45.129517     -1.33824        0.21583757    -1.1224025    
     43000   41.141147     -1.403379       0.19676269    -1.2066164    
     44000   45.819414     -1.4292335      0.21913709    -1.2100964    
     45000   47.449878     -1.387258       0.22693499    -1.160323     
     46000   31.651716     -1.3944037      0.1513783     -1.2430254    
     47000   42.360063     -1.3230398      0.20259231    -1.1204475    
     48000   42.65763      -1.3643237      0.20401546    -1.1603082    
     49000   48.406261     -1.2819794      0.23150901    -1.0504704    
     50000   46.750062     -1.3495209      0.22358803    -1.1259328    
     51000   42.133712     -1.3744331      0.20150976    -1.1729234    
     52000   37.828122     -1.4163332      0.18091774    -1.2354155    
     53000   42.628522     -1.3942885      0.20387625    -1.1904123    
     54000   37.271865     -1.3950326      0.17825737    -1.2167752    
     55000   47.613531     -1.2884381      0.22771768    -1.0607204    
     56000   46.109351     -1.229879       0.22052375    -1.0093553    
     57000   43.980904     -1.3575627      0.21034419    -1.1472186    
     58000   41.971966     -1.38028        0.20073619    -1.1795438    
     59000   45.511703     -1.3143228      0.21766543    -1.0966574    
     60000   37.276891     -1.3733264      0.17828141    -1.195045     
     61000   45.664932     -1.3665322      0.21839826    -1.148134     
     62000   45.189598     -1.365883       0.21612492    -1.1497581    
     63000   42.647632     -1.3598857      0.20396765    -1.155918     
     64000   56.030022     -1.4042163      0.26797061    -1.1362457    
     65000   38.916594     -1.3605624      0.18612349    -1.174439     
     66000   49.354633     -1.3819757      0.23604472    -1.145931     
     67000   39.422941     -1.3488744      0.18854516    -1.1603292    
     68000   53.552898     -1.2985919      0.25612345    -1.0424685    
     69000   50.413478     -1.3256376      0.24110878    -1.0845289    
     70000   47.518792     -1.3299066      0.22726458    -1.1026421    
     71000   40.728351     -1.4035634      0.19478844    -1.2087749    
     72000   46.213045     -1.3528879      0.22101968    -1.1318682    
     73000   39.795958     -1.3684558      0.19032916    -1.1781267    
     74000   43.551155     -1.3191668      0.20828886    -1.1108779    
     75000   48.189895     -1.3723859      0.23047421    -1.1419117    
     76000   39.558538     -1.420092       0.18919367    -1.2308984    
     77000   46.344906     -1.4104063      0.22165032    -1.1887559    
     78000   40.817149     -1.3717888      0.19521313    -1.1765757    
     79000   55.055379     -1.4094868      0.26330925    -1.1461775    
     80000   47.385598     -1.3820022      0.22662756    -1.1553747    
     81000   43.547357     -1.3160345      0.20827069    -1.1077638    
     82000   66.579584     -1.3927532      0.31842521    -1.074328     
     83000   47.662946     -1.407175       0.22795401    -1.1792209    
     84000   40.419835     -1.4328576      0.19331293    -1.2395446    
     85000   37.767482     -1.3906845      0.18062772    -1.2100568    
     86000   41.141235     -1.4315502      0.19676312    -1.234787     
     87000   47.763841     -1.4570973      0.22843656    -1.2286607    
     88000   38.133463     -1.379165       0.18237807    -1.1967869    
     89000   35.211224     -1.3383779      0.16840209    -1.1699758    
     90000   40.955376     -1.3154779      0.19587422    -1.1196037    
     91000   52.609488     -1.302856       0.25161147    -1.0512446    
     92000   43.041552     -1.3476009      0.20585162    -1.1417493    
     93000   39.640146     -1.3675041      0.18958397    -1.1779201    
     94000   35.446045     -1.3799575      0.16952515    -1.2104324    
     95000   36.585644     -1.3276852      0.17497543    -1.1527098    
     96000   57.969821     -1.3103116      0.27724794    -1.0330636    
     97000   56.865282     -1.3195897      0.27196534    -1.0476244    
     98000   52.385969     -1.303763       0.25054246    -1.0532206    
     99000   48.626852     -1.314246       0.23256402    -1.081682     
    100000   37.616498     -1.2777395      0.17990562    -1.0978339    
    101000   55.495876     -1.3181476      0.26541598    -1.0527316    
    102000   43.009874     -1.3788753      0.20570011    -1.1731751    
    103000   44.563321     -1.303536       0.21312967    -1.0904064    
    104000   38.15626      -1.2725368      0.1824871     -1.0900497    
    105000   40.336206     -1.2959351      0.19291296    -1.1030221    
    106000   62.060706     -1.3721366      0.29681311    -1.0753235    
    107000   43.42615      -1.3546461      0.207691      -1.1469551    
    108000   61.461328     -1.3018276      0.29394651    -1.0078811    
    109000   51.59543      -1.3078461      0.24676161    -1.0610844    
    110000   39.728057     -1.3431016      0.19000441    -1.1530972    
    111000   37.00026      -1.3098243      0.17695838    -1.1328659    
    112000   41.591164     -1.3959593      0.19891496    -1.1970443    
    113000   50.170848     -1.3918593      0.23994837    -1.1519109    
    114000   36.638351     -1.4495307      0.17522751    -1.2743032    
    115000   46.656909     -1.4640135      0.22314252    -1.240871     
    116000   39.496186     -1.4500697      0.18889546    -1.2611742    
    117000   43.013914     -1.4300629      0.20571944    -1.2243435    
    118000   45.671149     -1.3793009      0.21842799    -1.1608729    
    119000   58.041023     -1.4530315      0.27758847    -1.175443     
    120000   51.15052      -1.3528905      0.24463377    -1.1082567    
    121000   42.645254     -1.3303358      0.20395627    -1.1263795    
    122000   60.133078     -1.3620839      0.28759398    -1.0744899    
    123000   47.793919     -1.3441582      0.22858041    -1.1155777    
    124000   44.501722     -1.2768574      0.21283506    -1.0640223    
    125000   42.511144     -1.3401452      0.20331488    -1.1368303    
    126000   55.070524     -1.3120828      0.26338168    -1.0487011    
    127000   44.285695     -1.3650424      0.21180189    -1.1532405    
    128000   42.690382     -1.3907996      0.2041721     -1.1866275    
    129000   41.470476     -1.3932627      0.19833775    -1.1949249    
    130000   42.559969     -1.4392109      0.20354839    -1.2356625    
    131000   45.390706     -1.3819482      0.21708674    -1.1648614    
    132000   56.066799     -1.3820513      0.2681465     -1.1139048    
    133000   49.425237     -1.3492887      0.23638239    -1.1129063    
    134000   53.849142     -1.37766        0.25754027    -1.1201198    
    135000   51.20726      -1.4450031      0.24490514    -1.200098     
    136000   49.729435     -1.3287429      0.23783726    -1.0909056    
    137000   41.242885     -1.35748        0.19724927    -1.1602308    
    138000   41.269029     -1.2763934      0.1973743     -1.0790191    
    139000   47.626374     -1.2925692      0.2277791     -1.0647901    
    140000   44.908426     -1.3077649      0.21478018    -1.0929848    
    141000   37.228295     -1.3753192      0.17804899    -1.1972702    
    142000   45.437219     -1.377279       0.2173092     -1.1599698    
    143000   51.271628     -1.3326587      0.24521299    -1.0874457    
    144000   41.491324     -1.4183953      0.19843746    -1.2199579    
    145000   42.834054     -1.3392102      0.20485923    -1.1343509    
    146000   44.298159     -1.4097844      0.2118615     -1.1979229    
    147000   44.684753     -1.4273304      0.21371043    -1.21362      
    148000   49.97096      -1.4499487      0.23899238    -1.2109564    
    149000   37.2438       -1.4614274      0.17812314    -1.2833042    
    150000   43.39589      -1.4590758      0.20754628    -1.2515295    
    151000   51.057946     -1.4160236      0.24419103    -1.1718326    
    152000   40.68185      -1.3218052      0.19456605    -1.1272391    
    153000   44.42739      -1.4189451      0.21247956    -1.2064655    
    154000   45.798336     -1.3191243      0.21903628    -1.100088     
    155000   51.386444     -1.37881        0.24576211    -1.1330479    
    156000   46.214992     -1.3277883      0.22102899    -1.1067593    
    157000   36.063165     -1.2922649      0.17247661    -1.1197883    
    158000   48.241766     -1.2810249      0.23072229    -1.0503026    
    159000   52.479281     -1.3882648      0.25098874    -1.137276     
    160000   51.416479     -1.3631959      0.24590576    -1.1172901    
    161000   46.734746     -1.3424413      0.22351478    -1.1189266    
    162000   42.899889     -1.3063208      0.2051741     -1.1011467    
    163000   40.535524     -1.3479351      0.19386622    -1.1540689    
    164000   49.711032     -1.2852654      0.23774924    -1.0475161    
    165000   44.94813      -1.2892556      0.21497006    -1.0742855    
    166000   38.817222     -1.2795563      0.18564823    -1.0939081    
    167000   44.313715     -1.3026643      0.2119359     -1.0907284    
    168000   40.78032      -1.3485119      0.19503699    -1.1534749    
    169000   54.896387     -1.3719119      0.26254885    -1.109363     
    170000   43.782363     -1.3584046      0.20939464    -1.14901      
    171000   45.136538     -1.3631964      0.21587115    -1.1473252    
    172000   34.788173     -1.3963679      0.1663788     -1.2299891    
    173000   42.522016     -1.3456197      0.20336687    -1.1422528    
    174000   49.928965     -1.335354       0.23879153    -1.0965625    
    175000   52.315204     -1.2554593      0.25020402    -1.0052553    
    176000   35.456415     -1.3011398      0.16957475    -1.131565     
    177000   30.041833     -1.3971328      0.14367883    -1.253454     
    178000   38.624762     -1.3648861      0.18472777    -1.1801583    
    179000   36.620841     -1.3913568      0.17514376    -1.216213     
    180000   45.549097     -1.3297567      0.21784427    -1.1119124    
    181000   47.503306     -1.2971428      0.22719052    -1.0699523    
    182000   28.609712     -1.265378       0.13682954    -1.1285485    
    183000   42.883189     -1.383786       0.20509423    -1.1786917    
    184000   32.882297     -1.3305614      0.15726371    -1.1732977    
    185000   43.81978      -1.2585216      0.20957359    -1.048948     
    186000   52.294572     -1.2812967      0.25010535    -1.0311913    
    187000   38.346222     -1.3059335      0.18339561    -1.1225379    
    188000   46.077478     -1.3529327      0.22037131    -1.1325614    
    189000   33.599832     -1.3061531      0.16069541    -1.1454577    
    190000   44.562301     -1.3485986      0.21312479    -1.1354738    
    191000   51.127008     -1.3273656      0.24452132    -1.0828443    
    192000   49.693778     -1.2645933      0.23766672    -1.0269265    
    193000   46.65741      -1.3165765      0.22314491    -1.0934316    
    194000   48.121606     -1.303339       0.23014761    -1.0731914    
    195000   48.25641      -1.2128504      0.23079233    -0.9820581    
    196000   40.611842     -1.250903       0.19423122    -1.0566717    
    197000   42.836862     -1.3272986      0.20487266    -1.122426     
    198000   32.610255     -1.3096565      0.15596263    -1.1536939    
    199000   46.422599     -1.3935562      0.2220219     -1.1715343    
    200000   52.012303     -1.3386855      0.24875536    -1.0899302    
    201000   50.227688     -1.2511604      0.24022021    -1.0109402    
    202000   36.286933     -1.2619761      0.17354681    -1.0884293    
    203000   42.883136     -1.324063       0.20509397    -1.118969     
    204000   48.309523     -1.2359581      0.23104635    -1.0049117    
    205000   35.615823     -1.2296453      0.17033714    -1.0593081    
    206000   33.779501     -1.2996155      0.1615547     -1.1380608    
    207000   39.145429     -1.3628953      0.18721792    -1.1756774    
    208000   40.664751     -1.3015333      0.19448427    -1.107049     
    209000   40.642646     -1.343848       0.19437855    -1.1494695    
    210000   40.496636     -1.3123912      0.19368024    -1.1187109    
    211000   53.975422     -1.2743718      0.25814422    -1.0162276    
    212000   56.045053     -1.2993058      0.26804249    -1.0312633    
    213000   37.124125     -1.296959       0.17755078    -1.1194083    
    214000   37.960298     -1.2960468      0.18154988    -1.1144969    
    215000   36.519656     -1.2918155      0.17465983    -1.1171557    
    216000   48.946461     -1.3702965      0.23409258    -1.1362039    
    217000   44.976669     -1.3590641      0.21510656    -1.1439576    
    218000   30.715813     -1.3503469      0.14690223    -1.2034447    
    219000   37.966703     -1.3125626      0.18158052    -1.1309821    
    220000   45.537262     -1.4093604      0.21778766    -1.1915727    
    221000   41.647029     -1.3663231      0.19918214    -1.167141     
    222000   38.218318     -1.3786467      0.1827839     -1.1958628    
    223000   48.840372     -1.3594276      0.2335852     -1.1258424    
    224000   44.03679      -1.3181818      0.21061147    -1.1075703    
    225000   38.442592     -1.3691923      0.18385651    -1.1853358    
    226000   40.819736     -1.3354927      0.1952255     -1.1402672    
    227000   55.062922     -1.4561107      0.26334533    -1.1927654    
    228000   48.461272     -1.3795067      0.23177211    -1.1477345    
    229000   46.572431     -1.3089584      0.22273849    -1.0862199    
    230000   37.376515     -1.372028       0.17875787    -1.1932702    
    231000   44.531407     -1.3184855      0.21297704    -1.1055084    
    232000   38.862422     -1.4032288      0.1858644     -1.2173644    
    233000   39.633164     -1.4112104      0.18955057    -1.2216598    
    234000   49.255407     -1.4113306      0.23557016    -1.1757605    
    235000   47.510064     -1.413957       0.22722284    -1.1867342    
    236000   37.025501     -1.3982633      0.1770791     -1.2211842    
    237000   42.615461     -1.3645084      0.20381378    -1.1606947    
    238000   41.150439     -1.3673224      0.19680714    -1.1705152    
    239000   52.92417      -1.3850653      0.25311648    -1.1319488    
    240000   42.419411     -1.416082       0.20287615    -1.2132059    
    241000   56.987656     -1.3922711      0.27255061    -1.1197205    
    242000   36.348114     -1.3371825      0.17383941    -1.1633431    
    243000   38.447271     -1.3166046      0.1838789     -1.1327257    
    244000   39.223068     -1.3643634      0.18758924    -1.1767741    
    245000   44.158063     -1.4173673      0.21119147    -1.2061758    
    246000   46.591005     -1.3532738      0.22282732    -1.1304465    
    247000   45.354443     -1.3601629      0.21691331    -1.1432496    
    248000   39.002943     -1.3783275      0.18653647    -1.1917911    
    249000   43.026334     -1.3497121      0.20577884    -1.1439332    
    250000   53.800205     -1.3740138      0.25730622    -1.1167075    
    251000   53.374617     -1.3052802      0.2552708     -1.0500094    
    252000   49.459851     -1.3271053      0.23654794    -1.0905574    
    253000   55.429582     -1.3444642      0.26509892    -1.0793652    
    254000   38.473089     -1.3876881      0.18400237    -1.2036858    
    255000   46.679333     -1.374089       0.22324976    -1.1508393    
    256000   48.645741     -1.3984512      0.23265436    -1.1657969    
    257000   43.386941     -1.3821217      0.20750349    -1.1746182    
    258000   46.611744     -1.394283       0.22292651    -1.1713565    
    259000   39.618851     -1.4008702      0.18948212    -1.2113881    
    260000   46.162748     -1.3782399      0.22077913    -1.1574608    
    261000   40.264527     -1.3760547      0.19257015    -1.1834845    
    262000   42.775263     -1.3483363      0.20457806    -1.1437583    
    263000   53.923719     -1.3835806      0.25789694    -1.1256837    
    264000   39.092174     -1.4085807      0.18696322    -1.2216175    
    265000   38.128992     -1.4116016      0.18235669    -1.2292449    
    266000   59.659068     -1.4077569      0.28532697    -1.12243      
    267000   44.831982     -1.3113142      0.21441457    -1.0968997    
    268000   42.661346     -1.4005402      0.20403323    -1.196507     
    269000   39.685082     -1.333592       0.18979888    -1.1437931    
    270000   55.246643     -1.433274       0.264224      -1.16905      
    271000   51.153073     -1.4019261      0.24464598    -1.1572801    
    272000   42.793453     -1.4166009      0.20466505    -1.2119359    
    273000   44.17187      -1.3381069      0.21125751    -1.1268494    
    274000   54.255668     -1.3267022      0.25948453    -1.0672177    
    275000   44.491856     -1.3539022      0.21278788    -1.1411143    
    276000   43.205819     -1.3897166      0.20663724    -1.1830794    
    277000   48.402553     -1.3704268      0.23149128    -1.1389355    
    278000   45.734648     -1.3869635      0.21873169    -1.1682318    
    279000   42.40147      -1.322063       0.20279034    -1.1192726    
    280000   48.574735     -1.2932404      0.23231476    -1.0609256    
    281000   38.104987     -1.3198354      0.18224188    -1.1375936    
    282000   48.848676     -1.3938773      0.23362492    -1.1602524    
    283000   36.627041     -1.3702635      0.17517341    -1.19509      
    284000   47.16337      -1.4049313      0.22556473    -1.1793666    
    285000   39.972329     -1.3807814      0.19117267    -1.1896087    
    286000   40.294116     -1.3808517      0.19271166    -1.1881401    
    287000   40.181282     -1.4440822      0.19217202    -1.2519102    
    288000   53.412742     -1.42237        0.25545314    -1.1669169    
    289000   39.915278     -1.401181       0.19089982    -1.2102811    
    290000   35.786947     -1.3643117      0.17115556    -1.1931562    
    291000   60.916881     -1.4206864      0.29134262    -1.1293438    
    292000   43.353231     -1.4428926      0.20734226    -1.2355504    
    293000   44.065307     -1.465236       0.21074785    -1.2544881    
    294000   39.947143     -1.3373459      0.19105222    -1.1462937    
    295000   40.607878     -1.335998       0.19421227    -1.1417858    
    296000   39.682028     -1.3865891      0.18978427    -1.1968048    
    297000   53.740783     -1.3688996      0.25702203    -1.1118776    
    298000   53.094324     -1.3675075      0.25393026    -1.1135773    
    299000   57.283068     -1.3953027      0.27396345    -1.1213393    
    300000   40.625069     -1.3293771      0.19429449    -1.1350826    
    301000   49.813836     -1.3565985      0.23824091    -1.1183576    
    302000   36.047636     -1.3138767      0.17240234    -1.1414743    
    303000   44.388048     -1.3487441      0.2122914     -1.1364527    
    304000   44.608371     -1.3637761      0.21334513    -1.150431     
    305000   44.705083     -1.3756923      0.21380767    -1.1618846    
    306000   42.264408     -1.368624       0.20213483    -1.1664892    
    307000   44.531826     -1.3401446      0.21297904    -1.1271655    
    308000   37.954918     -1.3215887      0.18152416    -1.1400645    
    309000   48.220619     -1.329424       0.23062116    -1.0988028    
    310000   52.953087     -1.3832829      0.25325478    -1.1300281    
    311000   51.506942     -1.3719976      0.24633841    -1.1256592    
    312000   55.310131     -1.3591887      0.26452764    -1.0946611    
    313000   50.590707     -1.36814        0.2419564     -1.1261836    
    314000   51.551857     -1.2657491      0.24655322    -1.0191959    
    315000   40.705107     -1.2933712      0.19467728    -1.0986939    
    316000   45.221488     -1.3289952      0.21627744    -1.1127178    
    317000   54.657246     -1.2414944      0.26140513    -0.98008928   
    318000   39.010136     -1.3201852      0.18657087    -1.1336144    
    319000   42.120118     -1.3609492      0.20144475    -1.1595044    
    320000   52.800608     -1.329244       0.25252553    -1.0767185    
    321000   40.420339     -1.4047658      0.19331534    -1.2114505    
    322000   33.56798      -1.3795354      0.16054307    -1.2189923    
    323000   48.194479     -1.3382007      0.23049614    -1.1077046    
    324000   50.101432     -1.2854688      0.23961638    -1.0458524    
    325000   38.985096     -1.2430943      0.18645111    -1.0566432    
    326000   42.30903      -1.2971113      0.20234824    -1.094763     
    327000   59.427065     -1.3259803      0.28421739    -1.0417629    
    328000   60.824141     -1.2471136      0.29089908    -0.95621452   
    329000   51.540764     -1.3037891      0.24650017    -1.0572889    
    330000   46.395917     -1.2775269      0.22189429    -1.0556326    
    331000   43.133136     -1.3852698      0.20628963    -1.1789801    
    332000   50.449035     -1.3535922      0.24127883    -1.1123134    
    333000   45.406215     -1.3902684      0.21716091    -1.1731075    
    334000   55.380774     -1.3789247      0.26486549    -1.1140592    
    335000   44.444263     -1.3877817      0.21256026    -1.1752214    
    336000   41.60599      -1.4278368      0.19898586    -1.2288509    
    337000   54.414954     -1.3939547      0.26024634    -1.1337084    
    338000   47.13543      -1.4346959      0.2254311     -1.2092648    
    339000   50.843231     -1.4182357      0.24316413    -1.1750715    
    340000   49.082693     -1.3447659      0.23474413    -1.1100218    
    341000   44.945733     -1.3906361      0.2149586     -1.1756775    
    342000   47.671434     -1.3615758      0.22799461    -1.1335812    
    343000   48.935607     -1.3577864      0.23404067    -1.1237457    
    344000   37.438566     -1.4241777      0.17905464    -1.245123     
    345000   39.791304     -1.4652514      0.1903069     -1.2749445    
    346000   39.874006     -1.4311535      0.19070243    -1.2404511    
    347000   41.266454     -1.4693649      0.19736199    -1.2720029    
    348000   35.779738     -1.455792       0.17112108    -1.2846709    
    349000   33.392079     -1.4262845      0.1597018     -1.2665827    
    350000   45.082759     -1.450859       0.21561395    -1.2352451    
    351000   43.411191     -1.4063135      0.20761946    -1.198694     
    352000   52.533066     -1.4082192      0.25124597    -1.1569732    
    353000   59.179644     -1.4660199      0.28303407    -1.1829858    
    354000   48.082128     -1.4200296      0.2299588     -1.1900708    
    355000   39.462225     -1.4623493      0.18873304    -1.2736163    
    356000   46.338917     -1.3615074      0.22162168    -1.1398857    
    357000   38.601765     -1.4044993      0.18461778    -1.2198815    
    358000   50.597465     -1.3802136      0.24198872    -1.1382249    
    359000   43.17394      -1.4154196      0.20648478    -1.2089348    
    360000   51.754146     -1.3782773      0.24752069    -1.1307566    
    361000   43.901985     -1.354228       0.20996675    -1.1442613    
    362000   48.763074     -1.3703809      0.23321551    -1.1371654    
    363000   44.061286     -1.4291215      0.21072863    -1.2183929    
    364000   49.762812     -1.2921265      0.23799689    -1.0541296    
    365000   43.126021     -1.3370654      0.2062556     -1.1308098    
    366000   43.524649     -1.3184475      0.20816209    -1.1102854    
    367000   42.360842     -1.2811876      0.20259604    -1.0785916    
    368000   34.230574     -1.3078537      0.16371201    -1.1441417    
    369000   43.61201      -1.2541453      0.20857991    -1.0455654    
    370000   44.227315     -1.2820204      0.21152268    -1.0704977    
    371000   40.485322     -1.2709618      0.19362613    -1.0773357    
    372000   53.381906     -1.2742685      0.25530566    -1.0189628    
    373000   54.743252     -1.2734859      0.26181647    -1.0116694    
    374000   38.243308     -1.3556953      0.18290342    -1.1727919    
    375000   45.428669     -1.3577019      0.21726831    -1.1404336    
    376000   46.54554      -1.3546813      0.22260988    -1.1320714    
    377000   54.838673     -1.3514345      0.26227283    -1.0891616    
    378000   39.898351     -1.3585116      0.19081886    -1.1676928    
    379000   48.797394     -1.4724552      0.23337965    -1.2390755    
    380000   43.403618     -1.4423157      0.20758325    -1.2347324    
    381000   48.786181     -1.4135716      0.23332603    -1.1802456    
    382000   49.787744     -1.3146272      0.23811613    -1.0765111    
    383000   50.808023     -1.3527999      0.24299574    -1.1098041    
    384000   49.952412     -1.3344398      0.23890367    -1.0955362    
    385000   43.458735     -1.4013258      0.20784685    -1.1934789    
    386000   44.940345     -1.4317705      0.21493283    -1.2168376    
    387000   58.679302     -1.4711901      0.28064112    -1.190549     
    388000   42.680897     -1.3970749      0.20412674    -1.1929482    
    389000   48.113813     -1.4550037      0.23011034    -1.2248934    
    390000   32.573325     -1.39914        0.15578601    -1.243354     
    391000   35.681269     -1.4870635      0.17065014    -1.3164134    
    392000   47.88476      -1.376296       0.22901487    -1.1472812    
    393000   53.230426     -1.1850613      0.25458119    -0.9304801    
    394000   36.485464     -1.1886662      0.1744963     -1.0141699    
    395000   55.78551      -1.2721141      0.26680119    -1.0053129    
    396000   43.367698     -1.3252594      0.20741145    -1.1178479    
    397000   39.740076     -1.4021931      0.1900619     -1.2121312    
    398000   31.608236     -1.3799223      0.15117035    -1.2287519    
    399000   39.58847      -1.3731456      0.18933682    -1.1838088    
    400000   51.342506     -1.3239168      0.24555197    -1.0783648    
    401000   42.78194      -1.3780225      0.20460999    -1.1734125    
    402000   41.687643     -1.3200224      0.19937638    -1.120646     
    403000   52.851136     -1.3223111      0.25276719    -1.0695439    
    404000   53.707621     -1.3664573      0.25686343    -1.1095938    
    405000   50.241294     -1.4510121      0.24028529    -1.2107268    
    406000   43.895179     -1.3853275      0.2099342     -1.1753933    
    407000   48.264199     -1.4738176      0.23082958    -1.242988     
    408000   48.466303     -1.3858821      0.23179617    -1.1540859    
    409000   42.716827     -1.4086018      0.20429858    -1.2043033    
    410000   40.334344     -1.4277053      0.19290405    -1.2348012    
    411000   41.083453     -1.2861014      0.19648677    -1.0896146    
    412000   47.621702     -1.3206303      0.22775676    -1.0928736    
    413000   51.173975     -1.3540485      0.24474595    -1.1093026    
    414000   46.131915     -1.3368279      0.22063167    -1.1161963    
    415000   43.506508     -1.4497483      0.20807533    -1.241673     
    416000   52.945808     -1.3960768      0.25321996    -1.1428568    
    417000   42.850396     -1.4267759      0.20493739    -1.2218385    
    418000   30.599543     -1.3297524      0.14634615    -1.1834062    
    419000   39.926076     -1.3791303      0.19095147    -1.1881788    
    420000   47.2061       -1.4100657      0.22576909    -1.1842967    
    421000   52.613847     -1.4272526      0.25163232    -1.1756203    
    422000   43.671953     -1.3652504      0.20886659    -1.1563838    
    423000   32.890681     -1.3653676      0.1573038     -1.2080637    
    424000   44.053135     -1.4022775      0.21068964    -1.1915879    
    425000   49.790282     -1.421796       0.23812826    -1.1836678    
    426000   45.594558     -1.4187551      0.21806169    -1.2006934    
    427000   44.482503     -1.3497311      0.21274315    -1.1369879    
    428000   47.880866     -1.344152       0.22899624    -1.1151558    
    429000   55.128235     -1.3315418      0.26365769    -1.0678841    
    430000   34.263238     -1.2815966      0.16386823    -1.1177283    
    431000   51.132894     -1.3769212      0.24454948    -1.1323717    
    432000   37.16178      -1.313509       0.17773087    -1.1357782    
    433000   57.052636     -1.3220599      0.27286139    -1.0491985    
    434000   44.842525     -1.3497618      0.214465      -1.1352968    
    435000   42.310199     -1.2743082      0.20235383    -1.0719544    
    436000   40.629532     -1.1995475      0.19431583    -1.0052316    
    437000   47.662506     -1.3070623      0.22795191    -1.0791104    
    438000   47.294918     -1.2934583      0.22619387    -1.0672644    
    439000   47.616589     -1.3304065      0.22773231    -1.1026742    
    440000   53.394632     -1.3657779      0.25536652    -1.1104113    
    441000   45.046278     -1.2854941      0.21543947    -1.0700546    
    442000   32.859053     -1.3147112      0.15715254    -1.1575587    
    443000   38.861228     -1.3074774      0.18585869    -1.1216187    
    444000   48.373979     -1.372981       0.23135462    -1.1416263    
    445000   46.136256     -1.2970677      0.22065243    -1.0764153    
    446000   50.458919     -1.3245043      0.2413261     -1.0831781    
    447000   36.129361     -1.3188233      0.1727932     -1.1460301    
    448000   35.517388     -1.3492875      0.16986636    -1.1794211    
    449000   44.316736     -1.3038051      0.21195035    -1.0918548    
    450000   47.468268     -1.2725794      0.22702294    -1.0455564    
    451000   47.807831     -1.1797561      0.22864694    -0.95110911   
    452000   42.16899      -1.2968789      0.20167848    -1.0952005    
    453000   55.570958     -1.3241917      0.26577507    -1.0584167    
    454000   45.814706     -1.2649034      0.21911457    -1.0457888    
    455000   53.83775      -1.2500998      0.25748579    -0.99261397   
    456000   50.399545     -1.2515946      0.24104214    -1.0105524    
    457000   41.068355     -1.2639749      0.19641456    -1.0675603    
    458000   50.089361     -1.3097109      0.23955865    -1.0701522    
    459000   51.131619     -1.2519698      0.24454338    -1.0074265    
    460000   63.256623     -1.2618844      0.30253273    -0.9593517    
    461000   43.193335     -1.3094539      0.20657754    -1.1028764    
    462000   52.824558     -1.3646232      0.25264007    -1.1119832    
    463000   39.623525     -1.3356875      0.18950447    -1.146183     
    464000   50.792115     -1.3068245      0.24291966    -1.0639048    
    465000   39.281329     -1.275267       0.18786788    -1.0873991    
    466000   47.787623     -1.3211059      0.2285503     -1.0925556    
    467000   44.709615     -1.4468697      0.21382934    -1.2330403    
    468000   44.480707     -1.3417813      0.21273456    -1.1290467    
    469000   42.782127     -1.250191       0.20461089    -1.0455801    
    470000   35.312481     -1.3382102      0.16888637    -1.1693239    
    471000   56.95856      -1.3826871      0.27241145    -1.1102756    
    472000   38.944216     -1.3231354      0.18625559    -1.1368798    
    473000   39.831316     -1.2659717      0.19049826    -1.0754734    
    474000   50.399606     -1.3259169      0.24104243    -1.0848745    
    475000   55.366801     -1.3584962      0.26479867    -1.0936976    
    476000   46.57049      -1.3192523      0.22272921    -1.0965231    
    477000   51.916637     -1.3920574      0.24829782    -1.1437596    
    478000   41.29923      -1.3588481      0.19751874    -1.1613293    
    479000   43.620458     -1.3534292      0.20862031    -1.1448089    
    480000   36.334375     -1.3387026      0.1737737     -1.1649289    
    481000   41.924463     -1.4132751      0.200509      -1.2127661    
    482000   46.349094     -1.320447       0.22167035    -1.0987766    
    483000   35.865122     -1.312367       0.17152944    -1.1408375    
    484000   41.201396     -1.3118305      0.19705084    -1.1147796    
    485000   53.446267     -1.2951416      0.25561347    -1.0395281    
    486000   44.621796     -1.3306275      0.21340933    -1.1172182    
    487000   42.829854     -1.2891637      0.20483915    -1.0843245    
    488000   44.041611     -1.2992508      0.21063453    -1.0886163    
    489000   42.593596     -1.375786       0.20370921    -1.1720768    
    490000   35.454362     -1.2923037      0.16956493    -1.1227388    
    491000   36.863115     -1.1939867      0.17630247    -1.0176842    
    492000   42.28744      -1.2303348      0.20224498    -1.0280899    
    493000   36.793949     -1.2964643      0.17597168    -1.1204927    
    494000   45.124285     -1.239574       0.21581255    -1.0237614    
    495000   48.00659      -1.2404295      0.22959754    -1.010832     
    496000   43.266791     -1.1757846      0.20692885    -0.96885573   
    497000   42.248387     -1.2281591      0.20205821    -1.0261009    
    498000   41.195646     -1.309308       0.19702334    -1.1122847    
    499000   46.675729     -1.3055624      0.22323253    -1.0823298    
    500000   43.843535     -1.3015809      0.2096872     -1.0918937    
    501000   44.871541     -1.3327365      0.21460377    -1.1181328    
    502000   41.735972     -1.2702073      0.19960752    -1.0705998    
    503000   51.196332     -1.2200753      0.24485288    -0.97522242   
    504000   51.416518     -1.3285606      0.24590594    -1.0826547    
    505000   50.688935     -1.2986567      0.24242619    -1.0562305    
    506000   43.369457     -1.2414503      0.20741986    -1.0340305    
    507000   42.844353     -1.3338801      0.20490849    -1.1289716    
    508000   35.919484     -1.3101721      0.17178943    -1.1383827    
    509000   40.95171      -1.3261345      0.19585669    -1.1302778    
    510000   40.322939     -1.3548448      0.19284951    -1.1619953    
    511000   49.424771     -1.3065882      0.23638016    -1.070208     
    512000   49.092159     -1.3057444      0.2347894     -1.070955     
    513000   53.028349     -1.2899582      0.25361472    -1.0363435    
    514000   50.715619     -1.2093428      0.24255381    -0.96678896   
    515000   41.65439      -1.1906314      0.19921734    -0.99141402   
    516000   57.814993     -1.2492645      0.27650745    -0.97275702   
    517000   47.300205     -1.3445028      0.22621916    -1.1182837    
    518000   40.79464      -1.2763263      0.19510548    -1.0812208    
    519000   42.212254     -1.211341       0.2018854     -1.0094556    
    520000   34.939586     -1.2626852      0.16710295    -1.0955823    
    521000   42.108854     -1.321564       0.20139087    -1.1201732    
    522000   42.216359     -1.3343516      0.20190503    -1.1324466    
    523000   46.47724      -1.3427891      0.22228323    -1.1205058    
    524000   42.33247      -1.3080031      0.20246034    -1.1055427    
    525000   51.862753     -1.2589972      0.24804012    -1.0109571    
    526000   38.461402     -1.2162348      0.18394648    -1.0322884    
    527000   38.65949      -1.3507945      0.18489386    -1.1659006    
    528000   39.091055     -1.3583961      0.18695787    -1.1714382    
    529000   43.503711     -1.3999439      0.20806195    -1.1918819    
    530000   46.273538     -1.3500022      0.221309      -1.1286932    
    531000   46.293516     -1.2830269      0.22140454    -1.0616223    
    532000   45.332669     -1.2385963      0.21680917    -1.0217871    
    533000   46.613289     -1.3567761      0.2229339     -1.1338422    
    534000   32.89284      -1.309398       0.15731413    -1.1520838    
    535000   43.855294     -1.2799223      0.20974344    -1.0701789    
    536000   36.111233     -1.227079       0.1727065     -1.0543725    
    537000   46.567067     -1.3541479      0.22271284    -1.131435     
    538000   48.199252     -1.3850976      0.23051897    -1.1545787    
    539000   41.818475     -1.3839084      0.2000021     -1.1839063    
    540000   45.587042     -1.409294       0.21802574    -1.1912682    
    541000   40.701502     -1.3489752      0.19466003    -1.1543151    
    542000   50.838286     -1.394269       0.24314048    -1.1511285    
    543000   46.188848     -1.419022       0.22090396    -1.198118     
    544000   41.046088     -1.3467509      0.19630806    -1.1504429    
    545000   51.075161     -1.4067712      0.24427336    -1.1624978    
    546000   47.34612      -1.3591065      0.22643875    -1.1326677    
    547000   40.902427     -1.3412892      0.19562099    -1.1456682    
    548000   39.555694     -1.2312946      0.18918007    -1.0421145    
    549000   52.533703     -1.266591       0.25124902    -1.015342     
    550000   50.67052      -1.3116306      0.24233811    -1.0692925    
    551000   43.832584     -1.2373107      0.20963483    -1.0276758    
    552000   40.39645      -1.2578293      0.19320109    -1.0646283    
    553000   40.859947     -1.3610553      0.19541782    -1.1656375    
    554000   37.970461     -1.3931489      0.18159849    -1.2115505    
    555000   39.740238     -1.3539979      0.19006267    -1.1639352    
    556000   44.399874     -1.3619344      0.21234796    -1.1495865    
    557000   49.921732     -1.3623193      0.23875694    -1.1235623    
    558000   34.283412     -1.2679141      0.16396472    -1.1039493    
    559000   46.838339     -1.3075316      0.22401023    -1.0835214    
    560000   43.856656     -1.3337079      0.20974996    -1.1239579    
    561000   36.630258     -1.3325909      0.1751888     -1.1574021    
    562000   41.506251     -1.3748392      0.19850885    -1.1763304    
    563000   44.785307     -1.3556095      0.21419135    -1.1414181    
    564000   47.554337     -1.332278       0.22743458    -1.1048434    
    565000   40.580667     -1.3303425      0.19408213    -1.1362604    
    566000   32.35645      -1.2575936      0.15474878    -1.1028449    
    567000   54.31173      -1.305337       0.25975266    -1.0455844    
    568000   50.769561     -1.2980363      0.24281179    -1.0552245    
    569000   47.291579     -1.3731733      0.22617791    -1.1469954    
    570000   46.5709       -1.3867636      0.22273117    -1.1640324    
    571000   42.259967     -1.3747179      0.20211359    -1.1726043    
    572000   53.765588     -1.3587         0.25714066    -1.1015593    
    573000   54.945613     -1.3979597      0.26278428    -1.1351755    
    574000   43.41985      -1.3645543      0.20766087    -1.1568934    
    575000   49.523403     -1.4202308      0.23685188    -1.1833789    
    576000   46.019875     -1.3943351      0.22009582    -1.1742393    
    577000   44.434569     -1.4295795      0.2125139     -1.2170656    
    578000   39.384001     -1.4467228      0.18835892    -1.2583638    
    579000   49.528658     -1.3757492      0.23687701    -1.1388722    
    580000   37.856887     -1.3698585      0.18105531    -1.1888032    
    581000   52.455544     -1.3184624      0.25087521    -1.0675872    
    582000   54.580016     -1.3333465      0.26103577    -1.0723108    
    583000   43.806315     -1.3278012      0.2095092     -1.118292     
    584000   45.493676     -1.3644874      0.21757921    -1.1469081    
    585000   44.806651     -1.3290899      0.21429343    -1.1147964    
    586000   42.962973     -1.3535948      0.20547581    -1.148119     
    587000   44.571906     -1.4223796      0.21317073    -1.2092089    
    588000   39.048829     -1.3833141      0.18675592    -1.1965582    
    589000   49.617829     -1.3768465      0.23730349    -1.139543     
    590000   46.675106     -1.4473253      0.22322954    -1.2240958    
    591000   36.899404     -1.3252804      0.17647602    -1.1488043    
    592000   33.15551      -1.3150724      0.15857038    -1.156502     
    593000   47.725014     -1.351267       0.22825086    -1.1230161    
    594000   48.380724     -1.369798       0.23138688    -1.1384111    
    595000   39.917101     -1.3018036      0.19090854    -1.1108951    
    596000   42.692857     -1.3648045      0.20418394    -1.1606206    
    597000   38.59633      -1.4318158      0.18459179    -1.247224     
    598000   39.666887     -1.3660467      0.18971186    -1.1763348    
    599000   45.015663     -1.3056818      0.21529305    -1.0903888    
    600000   41.442135     -1.3616958      0.19820221    -1.1634936    
    601000   41.714433     -1.3445667      0.1995045     -1.1450622    
    602000   39.571643     -1.3290068      0.18925634    -1.1397505    
    603000   41.462403     -1.352893       0.19829914    -1.1545938    
    604000   48.985609     -1.356216       0.23427982    -1.1219362    
    605000   40.727194     -1.2663895      0.19478291    -1.0716066    
    606000   42.76         -1.3648531      0.20450506    -1.160348     
    607000   54.178102     -1.3421998      0.25911357    -1.0830863    
    608000   46.730014     -1.3363119      0.22349215    -1.1128198    
    609000   41.770158     -1.3041595      0.19977102    -1.1043885    
    610000   41.247981     -1.3205614      0.19727364    -1.1232878    
    611000   43.368298     -1.3367284      0.20741432    -1.129314     
    612000   51.120265     -1.3795218      0.24448908    -1.1350327    
    613000   34.777017     -1.3427056      0.16632544    -1.1763802    
    614000   37.589043     -1.4108299      0.17977431    -1.2310556    
    615000   45.834362     -1.3966907      0.21920858    -1.1774821    
    616000   51.435117     -1.4429896      0.2459949     -1.1969947    
    617000   33.698049     -1.4162681      0.16116514    -1.2551029    
    618000   47.761866     -1.3652876      0.22842711    -1.1368605    
    619000   34.808931     -1.3402813      0.16647808    -1.1738032    
    620000   43.616713     -1.3681038      0.2086024     -1.1595014    
    621000   47.034492     -1.3038228      0.22494835    -1.0788745    
    622000   38.851762     -1.2848225      0.18581342    -1.0990091    
    623000   42.134738     -1.3210745      0.20151467    -1.1195599    
    624000   44.805471     -1.3472636      0.21428778    -1.1329758    
    625000   46.594031     -1.3756234      0.2228418     -1.1527816    
    626000   45.604811     -1.3934825      0.21811073    -1.1753717    
    627000   49.471302     -1.3689975      0.2366027     -1.1323948    
    628000   40.794378     -1.2914438      0.19510423    -1.0963396    
    629000   43.028349     -1.3154741      0.20578847    -1.1096856    
    630000   47.229796     -1.3494054      0.22588242    -1.123523     
    631000   35.923651     -1.2762723      0.17180936    -1.1044629    
    632000   49.782501     -1.3385702      0.23809105    -1.1004791    
    633000   51.51905      -1.3388969      0.24639632    -1.0925006    
    634000   43.359052     -1.3250351      0.2073701     -1.117665     
    635000   40.377384     -1.3577094      0.1931099     -1.1645995    
    636000   50.613777     -1.3697088      0.24206673    -1.1276421    
    637000   58.662169     -1.3338625      0.28055918    -1.0533033    
    638000   44.815035     -1.3709659      0.21433352    -1.1566324    
    639000   40.109664     -1.3111616      0.1918295     -1.1193321    
    640000   41.467362     -1.4217646      0.19832286    -1.2234417    
    641000   38.38019      -1.4208754      0.18355807    -1.2373173    
    642000   47.043715     -1.384848       0.22499247    -1.1598555    
    643000   42.024941     -1.4154216      0.20098955    -1.214432     
    644000   45.714219     -1.4733407      0.21863399    -1.2547067    
    645000   52.519954     -1.4005174      0.25118326    -1.1493341    
    646000   42.383173     -1.4454848      0.20270284    -1.242782     
    647000   48.660229     -1.37264        0.23272365    -1.1399163    
    648000   41.648247     -1.3478826      0.19918796    -1.1486946    
    649000   57.552171     -1.3714038      0.27525047    -1.0961533    
    650000   63.325226     -1.4028261      0.30286083    -1.0999652    
    651000   45.230142     -1.4443521      0.21631882    -1.2280333    
    652000   44.058706     -1.3703928      0.21071628    -1.1596765    
    653000   49.552089     -1.394182       0.23698908    -1.1571929    
    654000   50.121067     -1.3810355      0.23971029    -1.1413252    
    655000   32.870472     -1.3125871      0.15720715    -1.1553799    
    656000   49.067139     -1.3718374      0.23466974    -1.1371677    
    657000   43.451473     -1.320134       0.20781211    -1.1123219    
    658000   46.587101     -1.4249074      0.22280865    -1.2020987    
    659000   42.01512      -1.3860675      0.20094258    -1.1851249    
    660000   37.969571     -1.4131684      0.18159423    -1.2315741    
    661000   45.096123     -1.4718529      0.21567786    -1.256175     
    662000   44.088189     -1.3991798      0.21085729    -1.1883225    
    663000   44.15126      -1.3628618      0.21115893    -1.1517029    
    664000   58.076512     -1.3796808      0.2777582     -1.1019226    
    665000   42.602218     -1.3790711      0.20375045    -1.1753206    
    666000   38.586026     -1.4214326      0.18454251    -1.2368901    
    667000   55.856227     -1.482914       0.26713941    -1.2157746    
    668000   39.836282     -1.4438835      0.19052201    -1.2533615    
    669000   39.680083     -1.4832023      0.18977497    -1.2934274    
    670000   36.978879     -1.4320555      0.17685613    -1.2551993    
    671000   47.501398     -1.3352227      0.22718139    -1.1080413    
    672000   67.656508     -1.3250871      0.32357573    -1.0015114    
    673000   51.193873     -1.3749263      0.24484112    -1.1300851    
    674000   41.743906     -1.4686148      0.19964546    -1.2689693    
    675000   42.51357      -1.4452698      0.20332648    -1.2419433    
    676000   46.499437     -1.3627985      0.22238938    -1.1404091    
    677000   48.566181     -1.3582201      0.23227385    -1.1259462    
    678000   47.081707     -1.3467168      0.22517417    -1.1215426    
    679000   48.188887     -1.3755326      0.23046939    -1.1450632    
    680000   46.662219     -1.3697115      0.22316791    -1.1465435    
    681000   39.612778     -1.4406977      0.18945307    -1.2512446    
    682000   36.997988     -1.415629       0.17694752    -1.2386815    
    683000   48.968572     -1.3128223      0.23419834    -1.0786239    
    684000   36.897704     -1.3709182      0.17646789    -1.1944503    
    685000   34.76882      -1.4506942      0.16628624    -1.2844079    
    686000   42.131425     -1.462445       0.20149882    -1.2609462    
    687000   48.517738     -1.410755       0.23204216    -1.1787128    
    688000   45.113952     -1.3384287      0.21576313    -1.1226655    
    689000   38.384936     -1.3777393      0.18358077    -1.1941585    
    690000   37.889164     -1.3753672      0.18120968    -1.1941575    
    691000   38.019866     -1.4039822      0.18183478    -1.2221475    
    692000   37.181312     -1.3902995      0.17782429    -1.2124752    
    693000   48.328863     -1.3598967      0.23113885    -1.1287579    
    694000   44.836007     -1.3768892      0.21443383    -1.1624554    
    695000   42.837854     -1.3615726      0.20487741    -1.1566952    
    696000   39.788095     -1.3548724      0.19029155    -1.1645808    
    697000   51.6287       -1.3818491      0.24692073    -1.1349283    
    698000   46.17547      -1.333138       0.22083998    -1.112298     
    699000   43.993765     -1.369165       0.2104057     -1.1587593    
    700000   48.286495     -1.3798365      0.23093622    -1.1489003    
    701000   51.032787     -1.3899947      0.2440707     -1.145924     
    702000   44.759102     -1.369581       0.21406602    -1.155515     
    703000   45.417298     -1.3692289      0.21721392    -1.152015     
    704000   46.775188     -1.4414644      0.2237082     -1.2177562    
    705000   42.369561     -1.3890822      0.20263774    -1.1864445    
    706000   44.754948     -1.3498187      0.21404615    -1.1357725    
    707000   48.202898     -1.3772701      0.2305364     -1.1467337    
    708000   42.957702     -1.3116142      0.20545059    -1.1061636    
    709000   51.226304     -1.2435904      0.24499622    -0.99859418   
    710000   38.274049     -1.2691112      0.18305044    -1.0860607    
    711000   40.502597     -1.2978308      0.19370875    -1.104122     
    712000   48.045158     -1.3192954      0.22978199    -1.0895134    
    713000   45.963214     -1.2936532      0.21982483    -1.0738284    
    714000   40.813475     -1.2740556      0.19519556    -1.0788601    
    715000   47.517166     -1.3264393      0.22725681    -1.0991825    
    716000   53.930325     -1.3440156      0.25792854    -1.0860871    
    717000   35.672683     -1.3333283      0.17060908    -1.1627193    
    718000   41.154452     -1.4118004      0.19682633    -1.2149741    
    719000   42.009619     -1.3846204      0.20091627    -1.1837041    
    720000   35.836229     -1.2729401      0.17139126    -1.1015488    
    721000   46.379084     -1.3773731      0.22181378    -1.1555593    
    722000   45.300649     -1.350264       0.21665604    -1.1336079    
    723000   50.739877     -1.4082107      0.24266982    -1.1655409    
    724000   39.697634     -1.3859354      0.18985891    -1.1960765    
    725000   44.487029     -1.4090319      0.21276479    -1.1962672    
    726000   49.408716     -1.3270736      0.23630338    -1.0907702    
    727000   51.111169     -1.3167897      0.24444558    -1.0723441    
    728000   49.186861     -1.3564211      0.23524233    -1.1211787    
    729000   50.966281     -1.3381246      0.24375263    -1.094372     
    730000   49.358578     -1.381206       0.23606359    -1.1451424    
    731000   42.425101     -1.3183046      0.20290337    -1.1154013    
    732000   50.300139     -1.3309595      0.24056672    -1.0903928    
    733000   45.034274     -1.2999712      0.21538206    -1.0845891    
    734000   42.816147     -1.3150439      0.20477359    -1.1102703    
    735000   42.017292     -1.370517       0.20095296    -1.169564     
    736000   53.824896     -1.3480826      0.25742431    -1.0906583    
    737000   41.835375     -1.3590487      0.20008293    -1.1589658    
    738000   52.638654     -1.2983401      0.25175096    -1.0465891    
    739000   51.377645     -1.3743837      0.24572003    -1.1286636    
    740000   51.238518     -1.3303294      0.24505463    -1.0852748    
    741000   33.317857     -1.3287931      0.15934683    -1.1694463    
    742000   46.003847     -1.362153       0.22001916    -1.1421338    
    743000   33.878329     -1.4177129      0.16202735    -1.2556856    
    744000   42.390769     -1.3864335      0.20273916    -1.1836943    
    745000   42.608279     -1.3822983      0.20377944    -1.1785189    
    746000   44.794075     -1.3671838      0.21423328    -1.1529505    
    747000   49.377977     -1.3095696      0.23615636    -1.0734132    
    748000   42.781043     -1.3143858      0.2046057     -1.1097801    
    749000   40.858524     -1.3071303      0.19541101    -1.1117193    
    750000   38.964997     -1.3965657      0.18635498    -1.2102107    
    751000   42.702944     -1.4737663      0.20423218    -1.2695341    
    752000   44.309294     -1.4524214      0.21191475    -1.2405066    
    753000   41.107154     -1.420395       0.19660012    -1.2237949    
    754000   50.652917     -1.4295971      0.24225392    -1.1873432    
    755000   40.023753     -1.3672782      0.19141862    -1.1758596    
    756000   33.817067     -1.4040067      0.16173436    -1.2422723    
    757000   43.164152     -1.4452982      0.20643797    -1.2388603    
    758000   41.397698     -1.451226       0.19798968    -1.2532364    
    759000   49.169086     -1.4728066      0.23515732    -1.2376493    
    760000   49.901121     -1.3615956      0.23865837    -1.1229373    
    761000   46.588997     -1.3317617      0.22281772    -1.108944     
    762000   40.631227     -1.4596081      0.19432393    -1.2652841    
    763000   37.422766     -1.3886495      0.17897907    -1.2096705    
    764000   45.43767      -1.3833114      0.21731135    -1.1660001    
    765000   40.331734     -1.3526058      0.19289157    -1.1597143    
    766000   51.240527     -1.4339392      0.24506425    -1.188875     
    767000   43.693377     -1.3878202      0.20896905    -1.1788512    
    768000   46.447298     -1.4684438      0.22214002    -1.2463038    
    769000   51.428604     -1.4139703      0.24596374    -1.1680066    
    770000   44.930436     -1.4044674      0.21488544    -1.189582     
    771000   37.410994     -1.4394678      0.17892277    -1.2605451    
    772000   37.462954     -1.4319468      0.17917127    -1.2527755    
    773000   50.516089     -1.3647466      0.24159953    -1.1231471    
    774000   46.060931     -1.307035       0.22029217    -1.0867428    
    775000   41.316626     -1.3428916      0.19760194    -1.1452897    
    776000   51.723819     -1.3583486      0.24737565    -1.110973     
    777000   54.917193     -1.4242636      0.26264836    -1.1616153    
    778000   36.719549     -1.3221867      0.17561584    -1.1465708    
    779000   40.106715     -1.3982879      0.19181539    -1.2064725    
    780000   38.036159     -1.4161114      0.1819127     -1.2341987    
    781000   49.289757     -1.4108003      0.23573444    -1.1750659    
    782000   35.71421      -1.4174089      0.17080769    -1.2466012    
    783000   38.400847     -1.4202597      0.18365686    -1.2366028    
    784000   55.463459     -1.3858502      0.26526095    -1.1205892    
    785000   36.505648     -1.3883811      0.17459284    -1.2137883    
    786000   44.761786     -1.3645819      0.21407885    -1.150503     
    787000   50.043171     -1.3182054      0.23933774    -1.0788677    
    788000   50.412238     -1.3298554      0.24110285    -1.0887526    
    789000   51.193819     -1.254245       0.24484086    -1.0094041    
    790000   44.29356      -1.2348706      0.2118395     -1.023031     
    791000   44.519899     -1.256356       0.212922      -1.043434     
    792000   48.026355     -1.3259804      0.22969206    -1.0962884    
    793000   40.648527     -1.2939418      0.19440667    -1.0995351    
    794000   39.319282     -1.2685402      0.1880494     -1.0804908    
    795000   46.980592     -1.2951638      0.22469057    -1.0704732    
    796000   39.387972     -1.2802073      0.18837791    -1.0918294    
    797000   44.790286     -1.3021249      0.21421516    -1.0879098    
    798000   45.228996     -1.3530746      0.21631334    -1.1367613    
    799000   37.426221     -1.3825795      0.1789956     -1.2035839    
    800000   57.687411     -1.3791491      0.27589728    -1.1032518    
    801000   44.495568     -1.3718228      0.21280563    -1.1590172    
    802000   42.524819     -1.4470925      0.20338028    -1.2437122    
    803000   47.391345     -1.409605       0.22665505    -1.18295      
    804000   42.775945     -1.4156478      0.20458132    -1.2110664    
    805000   45.157281     -1.347419       0.21597036    -1.1314486    
    806000   33.706736     -1.3586393      0.16120669    -1.1974326    
    807000   43.130188     -1.4291296      0.20627553    -1.222854     
    808000   39.069153     -1.4515976      0.18685312    -1.2647445    
    809000   48.343681     -1.4006224      0.23120972    -1.1694127    
    810000   43.348906     -1.3665953      0.20732158    -1.1592737    
    811000   44.847647     -1.350464       0.2144895     -1.1359745    
    812000   40.908449     -1.3722031      0.19564979    -1.1765533    
    813000   38.06803      -1.3424914      0.18206513    -1.1604263    
    814000   47.517264     -1.4249896      0.22725727    -1.1977323    
    815000   25.4436       -1.3537678      0.1216872     -1.2320806    
    816000   54.275775     -1.415953       0.2595807     -1.1563723    
    817000   46.500934     -1.3655617      0.22239655    -1.1431651    
    818000   43.233836     -1.3546317      0.20677124    -1.1478605    
    819000   47.493255     -1.2525636      0.22714244    -1.0254212    
    820000   49.683426     -1.290834       0.23761721    -1.0532168    
    821000   44.489256     -1.3637265      0.21277544    -1.150951     
    822000   41.105561     -1.3458556      0.1965925     -1.1492631    
    823000   50.339647     -1.3818222      0.24075567    -1.1410665    
    824000   34.734099     -1.4395221      0.16612018    -1.2734019    
    825000   47.855196     -1.4313043      0.22887347    -1.2024309    
    826000   48.088085     -1.3902604      0.22998729    -1.1602731    
    827000   43.959997     -1.4120566      0.21024419    -1.2018124    
    828000   50.203945     -1.3791547      0.24010666    -1.139048     
    829000   47.90532      -1.4342019      0.2291132     -1.2050887    
    830000   46.178638     -1.4067352      0.22085513    -1.1858801    
    831000   43.724884     -1.4395126      0.20911974    -1.2303928    
    832000   49.830904     -1.3948638      0.23832255    -1.1565412    
    833000   46.197757     -1.3062817      0.22094656    -1.0853351    
    834000   50.68836      -1.3599647      0.24242344    -1.1175413    
    835000   48.521807     -1.3193579      0.23206163    -1.0872963    
    836000   53.427061     -1.4687318      0.25552162    -1.2132102    
    837000   43.117666     -1.3197202      0.20621564    -1.1135045    
    838000   53.422702     -1.2922445      0.25550077    -1.0367437    
    839000   45.523259     -1.2776425      0.21772069    -1.0599218    
    840000   41.034534     -1.3245273      0.1962528     -1.1282745    
    841000   44.493146     -1.3804591      0.21279405    -1.1676651    
    842000   43.425        -1.3353645      0.20768551    -1.127679     
    843000   45.355748     -1.3274835      0.21691955    -1.1105639    
    844000   31.388269     -1.38625        0.15011833    -1.2361317    
    845000   42.343107     -1.4029431      0.20251122    -1.2004319    
    846000   43.032056     -1.3552184      0.2058062     -1.1494122    
    847000   49.820088     -1.2900063      0.23827082    -1.0517355    
    848000   46.68556      -1.3696825      0.22327954    -1.146403     
    849000   44.927752     -1.4182927      0.21487261    -1.2034201    
    850000   42.044192     -1.34485        0.20108162    -1.1437683    
    851000   45.767305     -1.3099007      0.21888787    -1.0910129    
    852000   60.059061     -1.415537       0.28723999    -1.128297     
    853000   47.010141     -1.3488247      0.22483189    -1.1239928    
    854000   44.549475     -1.3909716      0.21306345    -1.1779081    
    855000   41.518689     -1.3608508      0.19856833    -1.1622825    
    856000   37.616709     -1.3185399      0.17990663    -1.1386332    
    857000   38.048899     -1.3286039      0.18197363    -1.1466303    
    858000   30.92458      -1.3412834      0.14790068    -1.1933827    
    859000   46.771461     -1.3458858      0.22369038    -1.1221955    
    860000   38.362794     -1.35475        0.18347487    -1.1712751    
    861000   45.249114     -1.3082735      0.21640956    -1.0918639    
    862000   38.963688     -1.4040494      0.18634872    -1.2177007    
    863000   33.870446     -1.345573       0.16198965    -1.1835833    
    864000   47.365057     -1.3231577      0.22652932    -1.0966284    
    865000   49.937404     -1.315916       0.2388319     -1.0770841    
    866000   53.640637     -1.2504584      0.25654307    -0.99391531   
    867000   52.677288     -1.3417573      0.25193573    -1.0898215    
    868000   52.956624     -1.3573398      0.25327169    -1.1040681    
    869000   39.373906     -1.3105815      0.18831064    -1.1222709    
    870000   46.734589     -1.3786967      0.22351403    -1.1551827    
    871000   48.890924     -1.3502955      0.23382697    -1.1164685    
    872000   48.14743      -1.3150808      0.23027112    -1.0848097    
    873000   43.825653     -1.4031529      0.20960168    -1.1935512    
    874000   49.006021     -1.4000574      0.23437744    -1.16568      
    875000   44.832934     -1.2536053      0.21441913    -1.0391862    
    876000   46.44599      -1.3143768      0.22213377    -1.092243     
    877000   31.046848     -1.2747392      0.14848544    -1.1262537    
    878000   58.336245     -1.3948762      0.2790004     -1.1158758    
    879000   38.490473     -1.3897349      0.18408551    -1.2056494    
    880000   50.819373     -1.3937313      0.24305002    -1.1506813    
    881000   63.170105     -1.3318074      0.30211895    -1.0296884    
    882000   45.211603     -1.3420639      0.21623016    -1.1258337    
    883000   40.175859     -1.3246611      0.19214608    -1.132515     
    884000   43.201279     -1.3186383      0.20661553    -1.1120228    
    885000   41.931702     -1.3309216      0.20054362    -1.130378     
    886000   41.251198     -1.4493563      0.19728902    -1.2520672    
    887000   36.601309     -1.3776473      0.17505035    -1.202597     
    888000   35.220102     -1.2921937      0.16844455    -1.1237492    
    889000   31.298694     -1.3819779      0.14968993    -1.232288     
    890000   49.234455     -1.3810612      0.23546996    -1.1455912    
    891000   52.934981     -1.3372999      0.25316818    -1.0841317    
    892000   41.121224     -1.395881       0.19666741    -1.1992136    
    893000   45.578115     -1.325935       0.21798305    -1.107952     
    894000   54.171626     -1.3885981      0.25908259    -1.1295155    
    895000   44.097188     -1.3681578      0.21090033    -1.1572575    
    896000   43.725756     -1.3413013      0.20912391    -1.1321774    
    897000   52.701991     -1.413871       0.25205388    -1.1618171    
    898000   46.376729     -1.4027747      0.22180252    -1.1809722    
    899000   40.128148     -1.4334502      0.1919179     -1.2415323    
    900000   46.035298     -1.4710986      0.22016959    -1.250929     
    901000   47.055826     -1.5118424      0.22505039    -1.286792     
    902000   36.854847     -1.4801619      0.17626292    -1.303899     
    903000   43.531922     -1.4544733      0.20819688    -1.2462764    
    904000   35.357109     -1.4137126      0.16909981    -1.2446128    
    905000   37.224997     -1.4161072      0.17803321    -1.238074     
    906000   39.694851     -1.3926547      0.1898456     -1.2028091    
    907000   44.394014     -1.4013345      0.21231994    -1.1890146    
    908000   41.790134     -1.4683544      0.19986656    -1.2684878    
    909000   38.000101     -1.4339324      0.18174025    -1.2521922    
    910000   47.974609     -1.3482915      0.22944458    -1.1188469    
    911000   45.49144      -1.3362013      0.21756851    -1.1186328    
    912000   41.102871     -1.4142202      0.19657963    -1.2176405    
    913000   44.403828     -1.3994417      0.21236687    -1.1870749    
    914000   47.603417     -1.4000153      0.22766931    -1.172346     
    915000   32.884712     -1.4057859      0.15727526    -1.2485106    
    916000   44.319293     -1.4348192      0.21196258    -1.2228566    
    917000   46.831133     -1.4594146      0.22397577    -1.2354388    
    918000   54.541346     -1.4382963      0.26085083    -1.1774455    
    919000   47.015133     -1.3655397      0.22485577    -1.1406839    
    920000   45.065974     -1.4162312      0.21553367    -1.2006975    
    921000   33.504148     -1.366609       0.16023779    -1.2063712    
    922000   51.47662      -1.3435832      0.24619339    -1.0973899    
    923000   48.796545     -1.3644292      0.2333756     -1.1310536    
    924000   50.418187     -1.3921247      0.2411313     -1.1509934    
    925000   41.786137     -1.3691586      0.19984744    -1.1693112    
    926000   42.654656     -1.375672       0.20400124    -1.1716708    
    927000   45.099661     -1.39484        0.21569478    -1.1791452    
    928000   55.397069     -1.4082733      0.26494343    -1.1433298    
    929000   42.330328     -1.4158069      0.2024501     -1.2133568    
    930000   49.869028     -1.3159397      0.23850488    -1.0774348    
    931000   54.148299     -1.3515786      0.25897103    -1.0926076    
    932000   47.548445     -1.3154942      0.2274064     -1.0880878    
    933000   51.611493     -1.3974866      0.24683844    -1.1506482    
    934000   48.614937     -1.3515703      0.23250703    -1.1190632    
    935000   36.234826     -1.319335       0.1732976     -1.1460374    
    936000   32.130821     -1.2915137      0.15366968    -1.137844     
    937000   38.70777      -1.356331       0.18512476    -1.1712062    
    938000   37.435962     -1.3186067      0.17904218    -1.1395645    
    939000   43.965857     -1.2939708      0.21027222    -1.0836985    
    940000   42.21278      -1.3215368      0.20188791    -1.1196489    
    941000   46.344899     -1.2886864      0.22165029    -1.0670361    
    942000   44.673625     -1.3407864      0.21365721    -1.1271292    
    943000   48.937404     -1.3357928      0.23404927    -1.1017435    
    944000   53.147071     -1.361332       0.25418253    -1.1071495    
    945000   49.625395     -1.2268462      0.23733967    -0.98950649   
    946000   45.130283     -1.2524475      0.21584123    -1.0366063    
    947000   45.07884      -1.3135531      0.2155952     -1.0979579    
    948000   53.142077     -1.3126257      0.25415865    -1.058467     
    949000   56.276485     -1.2591562      0.26914935    -0.99000686   
    950000   51.268351     -1.2766578      0.24519732    -1.0314605    
    951000   54.329689     -1.3597005      0.25983855    -1.099862     
    952000   37.345737     -1.3834954      0.17861067    -1.2048847    
    953000   49.964139     -1.3808298      0.23895976    -1.14187      
    954000   39.10146      -1.3745518      0.18700763    -1.1875442    
    955000   38.617116     -1.2852725      0.1846912     -1.1005813    
    956000   57.267087     -1.3006164      0.27388702    -1.0267294    
    957000   38.252991     -1.32244        0.18294972    -1.1394903    
    958000   35.571543     -1.3055196      0.17012536    -1.1353942    
    959000   47.354558     -1.3146655      0.22647911    -1.0881864    
    960000   43.885642     -1.3025848      0.20988858    -1.0926963    
    961000   44.185895     -1.3562053      0.21132458    -1.1448807    
    962000   45.435336     -1.2587367      0.21730019    -1.0414365    
    963000   43.986343     -1.2729229      0.2103702     -1.0625527    
    964000   45.509199     -1.340374       0.21765345    -1.1227205    
    965000   42.925787     -1.3266055      0.20529796    -1.1213075    
    966000   51.0779       -1.3071341      0.24428646    -1.0628476    
    967000   41.57892      -1.2996631      0.1988564     -1.1008067    
    968000   55.453002     -1.2893926      0.26521093    -1.0241816    
    969000   39.169913     -1.3576954      0.18733502    -1.1703604    
    970000   43.688015     -1.3739015      0.20894341    -1.1649581    
    971000   48.991172     -1.3560145      0.23430642    -1.1217081    
    972000   46.530339     -1.3362123      0.22253718    -1.1136751    
    973000   46.871674     -1.2607802      0.22416966    -1.0366105    
    974000   41.330075     -1.1777752      0.19766626    -0.98010892   
    975000   46.571552     -1.1721517      0.22273429    -0.94941742   
    976000   54.065117     -1.2842865      0.2585732     -1.0257133    
    977000   42.939634     -1.2870211      0.20536418    -1.0816569    
    978000   48.445367     -1.3187727      0.23169604    -1.0870767    
    979000   42.735877     -1.3636017      0.20438969    -1.159212     
    980000   43.197631     -1.344156       0.20659809    -1.1375579    
    981000   43.852511     -1.317789       0.20973013    -1.1080589    
    982000   33.779288     -1.2966957      0.16155368    -1.135142     
    983000   52.373907     -1.3075147      0.25048478    -1.0570299    
    984000   36.697037     -1.314223       0.17550818    -1.1387148    
    985000   41.030846     -1.3196952      0.19623516    -1.12346      
    986000   49.742107     -1.3234651      0.23789786    -1.0855672    
    987000   45.193316     -1.3530197      0.2161427     -1.136877     
    988000   57.639549     -1.4302246      0.27566837    -1.1545562    
    989000   48.202365     -1.3694079      0.23053385    -1.1388741    
    990000   50.138804     -1.2789405      0.23979511    -1.0391454    
    991000   50.624164     -1.2836883      0.24211641    -1.0415719    
    992000   45.686291     -1.3098412      0.21850041    -1.0913408    
    993000   48.889767     -1.4188758      0.23382144    -1.1850543    
    994000   36.010278     -1.3968067      0.17222367    -1.2245831    
    995000   44.986696     -1.3844754      0.21515451    -1.1693209    
    996000   47.02742      -1.3755189      0.22491453    -1.1506044    
    997000   45.228709     -1.4071519      0.21631197    -1.1908399    
    998000   46.732492     -1.3372094      0.223504      -1.1137054    
    999000   51.447223     -1.3366943      0.24605279    -1.0906415    
   1000000   43.411115     -1.3915451      0.2076191     -1.183926     
Loop time of 2.27546 on 1 procs for 1000000 steps with 38 atoms

Performance: 37970.418 ns/day, 0.001 hours/ns, 439472.432 timesteps/s, 16.700 Matom-step/s
99.7% CPU use with 1 MPI tasks x no OpenMP threads

MPI task timing breakdown:
Section |  min time  |  avg time  |  max time  |%varavg| %total
---------------------------------------------------------------
Pair    | 1.5336     | 1.5336     | 1.5336     |   0.0 | 67.40
Neigh   | 0.14385    | 0.14385    | 0.14385    |   0.0 |  6.32
Comm    | 0.060578   | 0.060578   | 0.060578   |   0.0 |  2.66
Output  | 0.033932   | 0.033932   | 0.033932   |   0.0 |  1.49
Modify  | 0.38784    | 0.38784    | 0.38784    |   0.0 | 17.04
Other   |            | 0.1156     |            |       |  5.08

Nlocal:             38 ave          38 max          38 min
Histogram: 1 0 0 0 0 0 0 0 0 0
Nghost:              1 ave           1 max           1 min
Histogram: 1 0 0 0 0 0 0 0 0 0
Neighs:            430 ave         430 max         430 min
Histogram: 1 0 0 0 0 0 0 0 0 0

Total # of neighbors = 430
Ave neighs/atom = 11.315789
Neighbor list builds = 20130
Dangerous builds = 0
Total wall time: 0:00:02
