38
 Atoms. Timestep: 0
Ar 26.6625 26.873 25
Ar 30.6455 26.903 25.003
Ar 26.8725 30.656 24.99
Ar 23.1275 26.863 24.993
Ar 19.3445 26.873 24.986
Ar 23.0965 30.645 24.986
Ar 23.1375 23.127 25
Ar 19.3545 23.097 24.997
Ar 23.1275 19.344 25.01
Ar 26.8725 23.137 25.007
Ar 30.6555 23.127 25.014
Ar 26.9035 19.355 25.014
Ar 24.9965 25.007 27.642
Ar 28.7455 25.017 27.659
Ar 21.2445 24.997 27.646
Ar 24.9865 28.756 27.646
Ar 25.0065 21.255 27.659
Ar 28.7555 28.786 27.656
Ar 21.2165 28.766 27.646
Ar 21.2375 21.227 27.663
Ar 28.7755 21.248 27.673
Ar 25.0035 24.993 22.358
Ar 28.7555 25.003 22.354
Ar 21.2545 24.983 22.341
Ar 24.9925 28.746 22.341
Ar 25.0135 21.244 22.354
Ar 28.7625 28.773 22.337
Ar 21.2235 28.752 22.327
Ar 21.2445 21.214 22.344
Ar 28.7825 21.234 22.354
Ar 26.8655 26.897 30.329
Ar 23.1065 26.886 30.325
Ar 23.1165 23.127 30.332
Ar 26.8755 23.137 30.339
Ar 26.8825 26.873 19.668
Ar 23.1235 26.863 19.661
Ar 23.1335 23.103 19.671
Ar 26.8925 23.114 19.675
38
 Atoms. Timestep: 10000
Ar 26.8881 26.8956 24.9732
Ar 30.7402 26.9039 25.0242
Ar 26.9055 30.7625 24.9566
Ar 23.0382 26.8319 24.9592
Ar 19.3447 26.8516 25.0198
Ar 23.1548 30.5991 25.0113
Ar 23.1424 23.0757 24.8638
Ar 19.2778 23.0398 24.9658
Ar 23.1136 19.2317 25.0408
Ar 26.8898 23.1471 25.0204
Ar 30.6547 23.0916 25.0646
Ar 26.9847 19.4546 25.0345
Ar 25.0348 24.9552 27.5615
Ar 28.7201 25.0308 27.6632
Ar 21.2095 24.9518 27.5888
Ar 25.024 28.7063 27.4862
Ar 25.0604 21.1883 27.6466
Ar 28.6998 28.837 27.6305
Ar 21.2204 28.8253 27.6283
Ar 21.3181 21.3376 27.6261
Ar 28.8721 21.2957 27.6943
Ar 24.9484 25.0874 22.3923
Ar 28.7528 24.9508 22.4919
Ar 21.1935 24.9247 22.325
Ar 25.03 28.7649 22.2848
Ar 24.9413 21.1998 22.3781
Ar 28.753 28.7538 22.2907
Ar 21.1787 28.7504 22.463
Ar 21.1863 21.1845 22.2572
Ar 28.8394 21.2689 22.286
Ar 26.8565 26.9493 30.4036
Ar 23.0758 26.8878 30.2776
Ar 23.0858 23.1025 30.3309
Ar 26.8074 23.0703 30.3568
Ar 26.9479 26.8624 19.6803
Ar 23.0542 26.9438 19.7043
Ar 23.0618 23.1417 19.8167
Ar 26.7865 23.1452 19.8011
38
 Atoms. Timestep: 20000
Ar 26.8826 26.9295 25.009
Ar 30.6507 27.0415 25.1411
Ar 26.8335 30.6794 24.9902
Ar 23.1364 26.8265 24.986
Ar 19.3954 26.9714 24.9426
Ar 23.0622 30.5916 24.9462
Ar 23.1243 23.1169 25.0164
Ar 19.2435 23.1354 25.0649
Ar 23.0724 19.4254 25.0464
Ar 26.8167 23.0989 24.9212
Ar 30.7743 22.9883 25.0017
Ar 26.9236 19.3344 24.9398
Ar 24.9552 25.0486 27.6413
Ar 28.6853 24.9608 27.506
Ar 21.1372 25.0855 27.6414
Ar 24.9379 28.8263 27.6267
Ar 25.1153 21.2768 27.6446
Ar 28.6616 28.7165 27.6892
Ar 21.2054 28.8504 27.5697
Ar 21.2954 21.3083 27.7477
Ar 28.8553 21.2238 27.5817
Ar 25.0077 24.9026 22.3883
Ar 28.8689 24.9864 22.3639
Ar 21.1312 24.9747 22.4331
Ar 24.942 28.736 22.3897
Ar 24.9976 21.0717 22.2953
Ar 28.7359 28.8338 22.3334
Ar 21.2238 28.8286 22.3354
Ar 21.2482 21.101 22.3477
Ar 28.8166 21.2145 22.3172
Ar 26.7954 26.7921 30.2786
Ar 22.9579 26.8941 30.3854
Ar 23.2205 23.2128 30.2968
Ar 26.9706 23.1443 30.2424
Ar 26.9036 26.9149 19.7429
Ar 23.1327 26.7628 19.8219
Ar 23.1046 23.0079 19.6473
Ar 26.9719 23.1866 19.7267
38
 Atoms. Timestep: 30000
Ar 26.8635 26.8937 24.967
Ar 30.618 26.8632 25.0236
Ar 26.85 30.692 24.762
Ar 23.1466 26.8167 25.0545
Ar 19.4489 26.8129 25.1314
Ar 23.0966 30.6963 25.0327
Ar 23.1194 22.9631 24.9296
Ar 19.3643 23.082 24.9824
Ar 23.2006 19.1634 24.9355
Ar 26.8703 23.1456 25.0754
Ar 30.6834 23.097 25.0518
Ar 26.984 19.4165 25.0469
Ar 24.9489 24.9407 27.6246
Ar 28.6859 25.0321 27.6618
Ar 21.2474 24.9242 27.6392
Ar 25.0306 28.7233 27.6441
Ar 24.9457 21.1197 27.7274
Ar 28.6895 28.7711 27.6146
Ar 21.2841 28.8855 27.7335
Ar 21.092 21.2346 27.7226
Ar 28.7911 21.3192 27.8705
Ar 25.0528 25.0593 22.3249
Ar 28.7524 25.0559 22.3538
Ar 21.2482 25.0394 22.375
Ar 24.9132 28.6967 22.3805
Ar 25.1014 21.2257 22.3859
Ar 28.7958 28.785 22.1736
Ar 21.2418 28.8146 22.3518
Ar 21.0984 21.1195 22.1957
Ar 28.8475 21.1413 22.2641
Ar 26.924 26.8824 30.3747
Ar 23.1796 27.0476 30.3909
Ar 22.9883 23.1312 30.4181
Ar 26.8171 23.1765 30.467
Ar 26.7442 26.936 19.5029
Ar 23.0421 26.9686 19.562
Ar 23.1546 23.1806 19.6175
Ar 26.9306 23.1477 19.6305
38
 Atoms. Timestep: 40000
Ar 26.9197 26.859 25.0072
Ar 30.6193 26.8403 24.9579
Ar 26.858 30.6984 25.0356
Ar 23.1652 26.781 24.9501
Ar 19.4165 26.8201 24.9722
Ar 22.9926 30.6576 24.9569
Ar 23.0249 23.0397 25.1076
Ar 19.2384 23.0029 25.0617
Ar 23.0408 19.321 24.9552
Ar 26.8382 23.1251 25.1155
Ar 30.6671 23.1114 24.9524
Ar 26.8715 19.3859 24.9481
Ar 24.9647 25.058 27.6254
Ar 28.8087 24.95 27.6646
Ar 21.0363 25.0233 27.6515
Ar 25.1147 28.6996 27.6446
Ar 25.0037 21.2432 27.7121
Ar 28.8861 28.8876 27.7
Ar 21.1531 28.8634 27.6262
Ar 21.2949 21.2306 27.8233
Ar 28.8471 21.1856 27.6317
Ar 25.0128 24.9304 22.407
Ar 28.8113 25.0233 22.2931
Ar 21.2749 24.9582 22.3583
Ar 24.9096 28.7247 22.366
Ar 24.9901 21.2593 22.3108
Ar 28.8534 28.8679 22.2994
Ar 21.1701 28.8179 22.2294
Ar 21.1662 21.2585 22.3196
Ar 28.8172 21.311 22.2675
Ar 26.8059 26.8709 30.417
Ar 23.0599 26.9793 30.2579
Ar 23.2095 23.2984 30.3943
Ar 26.9387 23.0444 30.4
Ar 26.8 26.9846 19.7276
Ar 23.2015 26.677 19.6165
Ar 23.1131 23.0307 19.6016
Ar 26.8976 23.1808 19.6342
38
 Atoms. Timestep: 50000
Ar 26.913 26.9286 25.0044
Ar 30.7869 26.9512 24.868
Ar 26.8484 30.6952 24.9174
Ar 23.1351 26.9227 24.9618
Ar 19.3942 26.7854 24.9505
Ar 23.1569 30.7634 24.9807
Ar 23.0659 23.0912 25.0824
Ar 19.2391 23.017 25.0703
Ar 23.0607 19.3616 24.9958
Ar 26.8391 23.0965 24.9843
Ar 30.6316 23.1663 24.9245
Ar 26.9802 19.2885 25.0495
Ar 24.9491 25.0236 27.5732
Ar 28.8313 25.0016 27.5691
Ar 21.1127 25.0888 27.6705
Ar 24.9422 28.7944 27.7285
Ar 24.9708 21.1766 27.723
Ar 28.7423 28.8439 27.6219
Ar 21.1282 28.8453 27.6024
Ar 21.1897 21.3476 27.611
Ar 28.7872 21.2172 27.6381
Ar 24.9115 24.9776 22.4496
Ar 28.7099 24.93 22.4351
Ar 21.2511 24.9021 22.33
Ar 24.9595 28.7594 22.2929
Ar 25.0425 21.2358 22.3171
Ar 28.7912 28.6446 22.1812
Ar 21.2635 28.7951 22.5266
Ar 21.3226 21.1485 22.3255
Ar 28.9337 21.1472 22.3933
Ar 26.884 26.8948 30.3609
Ar 23.0586 26.8494 30.3595
Ar 23.139 23.1014 30.3313
Ar 26.779 23.1529 30.2531
Ar 26.7733 26.7829 19.6974
Ar 22.9682 26.9756 19.8433
Ar 23.2597 23.1659 19.6594
Ar 27.0411 23.1312 19.7166
38
 Atoms. Timestep: 60000
Ar 26.8386 26.8116 25.0158
Ar 30.6532 26.8577 24.9632
Ar 26.8023 30.7504 25.0008
Ar 23.1533 26.8268 24.8979
Ar 19.371 26.7878 25.0207
Ar 22.9536 30.6813 24.8344
Ar 23.1017 23.0574 25.0015
Ar 19.4022 23.0884 25.0598
Ar 23.0045 19.4376 25.1022
Ar 26.9542 23.1208 25.0446
Ar 30.6493 23.0595 24.9362
Ar 26.7695 19.3478 24.9895
Ar 25.066 24.9901 27.6518
Ar 28.8874 25.0072 27.6391
Ar 21.2508 24.9806 27.6536
Ar 24.9877 28.834 27.6213
Ar 25.0293 21.2446 27.6278
Ar 28.6999 28.7896 27.6846
Ar 21.3123 28.6759 27.5156
Ar 21.137 21.2624 27.8135
Ar 28.715 21.2049 27.5902
Ar 25.0093 25.0273 22.46
Ar 28.8416 24.9891 22.3201
Ar 21.238 24.9364 22.4194
Ar 24.9881 28.7503 22.2976
Ar 25.0142 21.3353 22.3831
Ar 28.6904 28.8757 22.4923
Ar 21.1451 28.7009 22.258
Ar 21.2146 21.1874 22.2684
Ar 28.7044 21.239 22.3286
Ar 26.854 26.9293 30.3998
Ar 23.2026 26.9944 30.3029
Ar 23.1899 23.2393 30.4438
Ar 26.9286 23.0075 30.3122
Ar 26.9722 26.8791 19.8709
Ar 23.1681 26.7999 19.5641
Ar 22.9967 23.127 19.6024
Ar 26.8962 23.1667 19.6126
38
 Atoms. Timestep: 70000
Ar 26.8559 26.9405 25.0586
Ar 30.6388 27.0413 24.9474
Ar 26.9522 30.6312 25.0174
Ar 23.1033 26.8575 24.9858
Ar 19.3948 26.9372 24.9959
Ar 23.2023 30.5425 24.98
Ar 23.2025 23.1388 24.9773
Ar 19.3632 23.2761 25.0249
Ar 23.0239 19.2726 24.9851
Ar 26.9632 23.1792 24.9782
Ar 30.6156 23.2132 24.9182
Ar 26.8969 19.3359 25.0248
Ar 25.0521 24.9906 27.5386
Ar 28.7399 24.9527 27.6774
Ar 21.2668 25.0723 27.6796
Ar 24.9642 28.8116 27.7217
Ar 25.0207 21.3042 27.5734
Ar 28.6972 28.7894 27.7884
Ar 21.2798 28.7468 27.7074
Ar 21.2115 21.3258 27.6391
Ar 28.7768 21.1711 27.7289
Ar 25.0431 24.9949 22.3675
Ar 28.7467 25.0444 22.2858
Ar 21.3097 25.0477 22.4394
Ar 24.9738 28.6827 22.2712
Ar 24.9747 21.177 22.4403
Ar 28.6479 28.7433 22.2511
Ar 21.2125 28.8228 22.2379
Ar 21.1995 21.2211 22.4208
Ar 28.9571 21.2925 22.3151
Ar 26.7857 26.8608 30.2965
Ar 23.0477 26.7228 30.3759
Ar 23.0718 23.0437 30.3943
Ar 26.7744 23.1821 30.3952
Ar 26.8161 26.8009 19.4899
Ar 23.0412 26.8033 19.6051
Ar 23.1029 23.0877 19.7455
Ar 26.8666 22.9426 19.7207
38
 Atoms. Timestep: 80000
Ar 26.883 26.8538 25.0335
Ar 30.6868 26.8584 25.0921
Ar 26.7952 30.7106 25.034
Ar 23.1458 26.9181 24.9784
Ar 19.3572 26.6848 25.0079
Ar 22.9739 30.7022 24.9932
Ar 23.0448 23.1488 24.9713
Ar 19.3967 22.9343 25.0848
Ar 23.0794 19.4722 24.9679
Ar 26.8949 23.1151 24.9713
Ar 30.6449 22.9424 24.9363
Ar 26.8461 19.2329 25.0132
Ar 24.9587 25.067 27.587
Ar 28.7785 24.9806 27.5312
Ar 21.2379 24.9731 27.7039
Ar 24.9371 28.6863 27.6543
Ar 25.0554 21.3069 27.6842
Ar 28.8228 28.896 27.5943
Ar 21.2545 28.7061 27.5396
Ar 21.306 21.2973 27.8064
Ar 28.7426 21.2311 27.8425
Ar 24.9686 24.9617 22.4138
Ar 28.8626 24.8066 22.2928
Ar 21.2686 24.9878 22.2194
Ar 24.9982 28.7759 22.3407
Ar 24.9152 21.2498 22.3503
Ar 28.7816 28.7136 22.5273
Ar 21.1432 28.7774 22.2802
Ar 21.1987 21.219 22.2969
Ar 28.7496 21.148 22.34
Ar 26.9685 26.944 30.271
Ar 23.0815 26.9569 30.2516
Ar 23.1662 23.1154 30.3444
Ar 26.9368 23.3724 30.2717
Ar 26.8995 26.9331 19.8967
Ar 23.0466 26.9914 19.6003
Ar 23.104 23.1942 19.5511
Ar 26.8613 23.1358 19.7245
38
 Atoms. Timestep: 90000
Ar 26.8681 26.8872 25.0006
Ar 30.5358 26.9153 25.0363
Ar 27.0018 30.6089 24.9983
Ar 23.189 26.9284 25.0617
Ar 19.1839 26.9325 25.062
Ar 23.2847 30.7523 25.0045
Ar 23.2182 23.1192 24.9619
Ar 19.2375 23.0484 25.0808
Ar 23.2988 19.1957 24.9688
Ar 26.8852 23.0462 24.9834
Ar 30.6699 23.0953 24.8696
Ar 27.1076 19.3606 25.0395
Ar 25.0514 24.9543 27.6077
Ar 28.6449 25.0246 27.6093
Ar 21.2292 24.9907 27.5421
Ar 25.0269 28.7259 27.6679
Ar 24.9704 21.2451 27.6945
Ar 28.6885 28.7987 27.7347
Ar 21.1346 28.7796 27.5734
Ar 21.2181 21.2978 27.6208
Ar 28.792 21.2263 27.7003
Ar 25.0454 25.0145 22.3909
Ar 28.7191 25.0216 22.3051
Ar 21.1094 24.9655 22.4117
Ar 25.1044 28.788 22.2849
Ar 24.9946 21.2425 22.4228
Ar 28.9082 28.7571 22.2235
Ar 21.2673 28.8327 22.4605
Ar 21.2492 21.1712 22.4658
Ar 28.7708 21.2005 22.2633
Ar 26.8306 26.8803 30.4115
Ar 23.0142 26.9504 30.2073
Ar 22.9408 23.2292 30.315
Ar 26.775 23.1811 30.2474
Ar 26.8093 26.8716 19.6299
Ar 23.1006 26.8704 19.7131
Ar 23.0754 23.0263 19.7248
Ar 26.8422 23.0653 19.7045
38
 Atoms. Timestep: 100000
Ar 26.8997 26.8898 25.0013
Ar 30.607 26.945 24.9851
Ar 26.8184 30.5671 24.9333
Ar 23.1496 26.9084 24.9651
Ar 19.5062 26.8917 25.0632
Ar 22.9031 30.5578 24.9827
Ar 23.0875 23.1724 24.9799
Ar 19.2607 23.204 24.9097
Ar 22.9209 19.3271 24.9392
Ar 26.7664 23.1422 25.0183
Ar 30.6858 23.1283 25.0916
Ar 26.7102 19.2858 25.1729
Ar 25.0778 25.0831 27.6651
Ar 28.8186 25.0371 27.6843
Ar 21.3731 24.9715 27.7008
Ar 25.0277 28.8808 27.6711
Ar 24.9266 21.3549 27.579
Ar 28.7329 28.8353 27.7231
Ar 21.2434 28.6376 27.7984
Ar 21.2154 21.2416 27.6124
Ar 28.7877 21.2508 27.6428
Ar 24.9415 24.961 22.2711
Ar 28.8826 24.9796 22.2476
Ar 21.2801 24.9369 22.2923
Ar 24.8942 28.7213 22.3664
Ar 24.9856 21.2399 22.4488
Ar 28.7585 28.7262 22.3386
Ar 21.2653 28.7204 22.1746
Ar 21.1416 21.193 22.2252
Ar 28.7556 21.2623 22.4767
Ar 26.9085 26.949 30.3135
Ar 23.2185 26.9019 30.5176
Ar 23.219 23.1226 30.387
Ar 26.9193 23.0649 30.3449
Ar 26.8761 26.8397 19.7227
Ar 23.076 26.8397 19.5342
Ar 23.1645 23.1041 19.5681
Ar 26.9874 23.1261 19.6515
38
 Atoms. Timestep: 110000
Ar 26.8694 26.9087 24.9975
Ar 30.707 26.6937 24.8786
Ar 26.8021 30.7177 25.0261
Ar 23.1943 26.8572 24.9801
Ar 19.3089 26.8389 24.9474
Ar 23.0566 30.6531 25.0643
Ar 23.091 23.1211 25.001
Ar 19.3847 22.9429 25.0125
Ar 23.0808 19.3333 24.9425
Ar 26.813 23.1593 25.132
Ar 30.5367 22.9839 24.9597
Ar 26.9931 19.3973 24.945
Ar 24.9236 25.0532 27.7048
Ar 28.7669 24.9616 27.717
Ar 21.1768 25.0118 27.6408
Ar 25.0816 28.7957 27.6241
Ar 24.9193 21.2054 27.7058
Ar 28.7974 28.8377 27.5151
Ar 21.2118 28.7254 27.5852
Ar 21.315 21.1035 27.7026
Ar 28.694 21.1784 27.8815
Ar 25.0877 25.0236 22.2918
Ar 28.8346 24.916 22.2126
Ar 21.2975 24.9608 22.3556
Ar 25.0265 28.8067 22.3495
Ar 25.0046 21.3863 22.3647
Ar 28.783 28.8388 22.3517
Ar 21.216 28.7674 22.3703
Ar 21.2158 21.1306 22.3021
Ar 28.7217 21.1275 22.279
Ar 26.93 27.2015 30.4062
Ar 23.1736 26.9958 30.3353
Ar 23.033 23.155 30.2917
Ar 26.8059 23.1973 30.425
Ar 26.9878 26.9114 19.6974
Ar 23.003 26.9205 19.724
Ar 23.0694 23.1303 19.6421
Ar 26.8788 23.0516 19.6374
38
 Atoms. Timestep: 120000
Ar 26.8547 26.8973 25.0445
Ar 30.6473 27.1044 25.0028
Ar 26.8954 30.5935 24.9892
Ar 23.1681 26.9274 25.0737
Ar 19.4139 27.0088 25.0024
Ar 23.0774 30.5907 24.9878
Ar 23.1913 23.1705 25.0492
Ar 19.1859 23.1749 24.8801
Ar 23.1526 19.1009 25.073
Ar 26.8983 23.1912 24.976
Ar 30.6772 23.1837 24.9908
Ar 27.0013 19.3529 25.0186
Ar 25.0139 25.0076 27.631
Ar 28.7995 25.0042 27.5178
Ar 21.2704 25.0648 27.5887
Ar 24.9901 28.8597 27.8276
Ar 24.9733 21.3057 27.5841
Ar 28.662 28.7025 27.8069
Ar 21.2177 28.9469 27.7033
Ar 21.036 21.3513 27.4938
Ar 28.7862 21.2848 27.5353
Ar 25.0431 25.026 22.3893
Ar 28.713 25.0157 22.3953
Ar 21.3252 24.9603 22.4293
Ar 24.9478 28.8267 22.1862
Ar 24.8992 21.1539 22.4943
Ar 28.7135 28.7586 22.1869
Ar 21.2949 28.8148 22.2695
Ar 21.1513 21.0558 22.6152
Ar 28.8059 21.222 22.378
Ar 26.8349 26.6984 30.2744
Ar 23.1119 26.8522 30.3336
Ar 23.0422 23.1255 30.1876
Ar 26.9782 23.0091 30.4142
Ar 27.0274 26.8836 19.5177
Ar 23.1678 26.7465 19.6209
Ar 23.0429 22.956 19.7602
Ar 26.7812 23.0722 19.7705
38
 Atoms. Timestep: 130000
Ar 26.8378 26.8789 24.8596
Ar 30.6432 26.7954 25.0019
Ar 26.6131 30.7078 24.96
Ar 23.092 26.8858 24.9941
Ar 19.2529 26.9775 24.9509
Ar 22.8555 30.666 25.0559
Ar 23.0054 23.1732 25.0135
Ar 19.2798 23.1237 25.0664
Ar 23.0595 19.2959 24.881
Ar 26.8107 23.0981 24.9973
Ar 30.7882 23.0141 24.9975
Ar 26.7852 19.3301 25.0857
Ar 25.0251 25.1004 27.6438
Ar 28.8222 24.9856 27.706
Ar 21.237 25.1392 27.6352
Ar 24.9686 28.7832 27.6617
Ar 24.9798 21.358 27.6255
Ar 28.7779 28.7578 27.6077
Ar 21.239 28.8241 27.7969
Ar 21.271 21.2616 27.7284
Ar 28.779 21.2138 27.6468
Ar 24.9992 24.9592 22.3572
Ar 28.8072 24.916 22.4559
Ar 21.2353 24.943 22.3385
Ar 24.9242 28.7359 22.3671
Ar 25.0561 21.3152 22.3386
Ar 28.8292 28.7496 22.4508
Ar 21.1482 28.6914 22.402
Ar 21.3495 21.2671 22.1045
Ar 28.7975 21.0742 22.3844
Ar 27.1066 26.9439 30.3313
Ar 23.2468 26.9621 30.333
Ar 23.1027 23.2585 30.3175
Ar 26.9242 23.1781 30.3369
Ar 26.9205 26.8233 19.743
Ar 23.0684 26.7774 19.7159
Ar 23.2444 22.9617 19.5197
Ar 26.9102 23.0742 19.5877
38
 Atoms. Timestep: 140000
Ar 26.877 26.9208 25.0344
Ar 30.4999 26.8695 25.0208
Ar 27.2032 30.5541 25.0416
Ar 23.1171 26.8676 24.9517
Ar 19.3761 26.8397 24.8772
Ar 23.307 30.715 24.9148
Ar 23.165 23.1129 25.001
Ar 19.3305 23.1247 25.1448
Ar 23.2384 19.1588 24.9386
Ar 26.8682 23.1939 25.025
Ar 30.6842 23.2139 25.0917
Ar 27.1029 19.3322 25.0068
Ar 24.9488 25.0117 27.63
Ar 28.7445 24.9695 27.7437
Ar 21.2211 25.1319 27.669
Ar 25.0453 28.7865 27.6263
Ar 24.9704 21.131 27.5847
Ar 28.8876 28.8685 27.7883
Ar 21.1957 28.8485 27.5809
Ar 21.2551 21.1118 27.666
Ar 28.6974 21.3424 27.7183
Ar 24.9466 24.9868 22.3185
Ar 28.5955 25.0197 22.3247
Ar 21.1748 24.9659 22.342
Ar 25.041 28.7733 22.3322
Ar 25.0723 21.2372 22.3458
Ar 28.8024 28.8463 22.2867
Ar 21.2168 28.7342 22.27
Ar 21.115 21.2488 22.5449
Ar 28.8647 21.2581 22.3638
Ar 26.9354 26.9181 30.3448
Ar 23.1293 26.8484 30.4449
Ar 22.9341 23.1667 30.3357
Ar 26.7261 23.0504 30.4424
Ar 26.7645 26.8484 19.4999
Ar 23.0356 26.8152 19.4108
Ar 22.9955 23.0332 19.7688
Ar 26.708 23.1454 19.5685
38
 Atoms. Timestep: 150000
Ar 26.8361 26.9004 24.9408
Ar 30.6085 26.802 24.9866
Ar 26.88 30.9061 24.9403
Ar 23.0931 26.9363 25.0031
Ar 19.4435 26.8763 25.1027
Ar 23.1283 30.6824 24.8463
Ar 23.1064 23.1351 25.0256
Ar 19.2924 23.1297 24.9001
Ar 23.0456 19.3598 25.0583
Ar 26.8698 23.0829 25.0786
Ar 30.6782 23.1031 25.0853
Ar 26.8701 19.2584 25.0592
Ar 24.998 24.9906 27.6383
Ar 28.7502 24.9566 27.6809
Ar 21.2013 24.9068 27.7127
Ar 25.094 28.8125 27.6292
Ar 25.0029 21.247 27.6656
Ar 28.8511 28.8044 27.5793
Ar 21.2961 28.7386 27.7827
Ar 21.1478 21.2177 27.6582
Ar 28.7949 21.189 27.7109
Ar 24.9415 24.9615 22.3587
Ar 28.6871 25.0156 22.4593
Ar 21.1319 24.9408 22.2981
Ar 24.954 28.7187 22.2751
Ar 25.009 21.2487 22.3874
Ar 28.8476 28.8682 22.3796
Ar 21.2004 28.746 22.1308
Ar 21.2354 21.1988 22.3569
Ar 28.7012 21.1707 22.5018
Ar 26.9273 27.0151 30.2875
Ar 23.1624 26.779 30.2687
Ar 23.174 22.9689 30.4098
Ar 26.9087 23.2019 30.2495
Ar 26.926 27.0132 19.5938
Ar 23.1607 26.8189 19.5548
Ar 23.0467 23.1036 19.6484
Ar 26.7909 23.1954 19.7552
38
 Atoms. Timestep: 160000
Ar 26.8507 26.8872 25.0895
Ar 30.6719 26.9493 24.8875
Ar 26.9199 30.6869 25.0163
Ar 23.1787 26.9189 25.028
Ar 19.4049 26.8857 25.0049
Ar 23.0223 30.6825 25.0141
Ar 23.127 23.1328 24.9624
Ar 19.2739 23.0379 24.9631
Ar 23.376 19.3858 25.0414
Ar 26.8317 23.0437 24.9465
Ar 30.5387 23.0546 25.0205
Ar 27.0063 19.2399 24.8925
Ar 25.0234 25.0672 27.6346
Ar 28.7448 24.9624 27.7747
Ar 21.2217 25.1173 27.6395
Ar 25.0308 28.8383 27.685
Ar 24.8992 21.27 27.7805
Ar 28.7826 28.7471 27.6385
Ar 21.2391 28.8892 27.6622
Ar 21.1488 21.2349 27.6132
Ar 28.7607 21.2917 27.7535
Ar 25.0358 25.0123 22.3502
Ar 28.7646 25.0404 22.2798
Ar 21.2329 24.99 22.4969
Ar 25.0411 28.6323 22.3498
Ar 24.9782 21.343 22.2505
Ar 28.7897 28.7812 22.3084
Ar 21.301 28.7262 22.41
Ar 21.2637 21.1705 22.4597
Ar 28.7692 21.1816 22.1577
Ar 26.8484 26.8779 30.3888
Ar 23.1136 26.9414 30.3321
Ar 23.0432 23.1844 30.3835
Ar 26.7397 23.2001 30.3273
Ar 26.8738 26.8583 19.5834
Ar 23.0694 26.6703 19.5742
Ar 22.9558 22.9857 19.6956
Ar 26.9194 23.0822 19.6037
38
 Atoms. Timestep: 170000
Ar 26.862 26.8393 24.9194
Ar 30.6892 26.8988 24.9661
Ar 26.7472 30.7586 24.9072
Ar 23.1039 26.8868 25.0099
Ar 19.3436 26.9153 24.9448
Ar 22.9553 30.6714 25.0014
Ar 23.0951 23.1051 25.0241
Ar 19.3245 23.1972 24.9898
Ar 22.9901 19.41 24.9516
Ar 26.8563 23.0987 24.9804
Ar 30.6904 23.1169 25.1761
Ar 26.8632 19.2657 25.0338
Ar 25.0642 24.9578 27.6618
Ar 28.7095 25.0037 27.5618
Ar 21.2979 24.9617 27.7037
Ar 24.9495 28.6786 27.5571
Ar 24.9832 21.1331 27.7776
Ar 28.6312 28.8582 27.4601
Ar 21.2214 28.6576 27.8528
Ar 21.1922 21.2033 27.7385
Ar 28.6918 21.2082 27.6287
Ar 24.9948 24.9776 22.3453
Ar 28.8177 24.9539 22.3715
Ar 21.2576 25.0442 22.3071
Ar 24.9466 28.6529 22.3233
Ar 24.9828 21.2571 22.3835
Ar 28.6642 28.6994 22.2471
Ar 21.2365 28.8141 22.2699
Ar 21.1832 21.3643 22.3937
Ar 28.8446 21.1528 22.5437
Ar 26.9413 26.9967 30.2297
Ar 23.149 26.8581 30.4307
Ar 23.2011 23.166 30.4009
Ar 27.0321 23.1704 30.5775
Ar 26.9566 26.795 19.5029
Ar 23.1138 26.9453 19.6018
Ar 23.1785 23.1922 19.5643
Ar 27.0309 23.1351 19.6604
38
 Atoms. Timestep: 180000
Ar 26.9784 26.9145 25.0205
Ar 30.7852 26.9372 24.9886
Ar 27.1073 30.7968 25.0176
Ar 23.1266 26.7332 24.9269
Ar 19.3239 26.7919 24.9484
Ar 23.2769 30.7936 24.9631
Ar 23.1107 23.0137 24.9252
Ar 19.297 23.1874 24.9905
Ar 23.151 19.3082 25.082
Ar 26.8686 23.1408 25.0319
Ar 30.5627 23.1989 25.0396
Ar 26.9518 19.4022 25.0073
Ar 25.0351 25.0583 27.6472
Ar 28.6921 25.0299 27.6835
Ar 21.2602 25.0013 27.5933
Ar 25.0382 28.7386 27.5978
Ar 25.0778 21.2952 27.6875
Ar 28.7932 28.8144 27.6612
Ar 21.2078 28.7818 27.3394
Ar 21.2498 21.1784 27.6036
Ar 28.8585 21.3132 27.787
Ar 24.9191 24.8759 22.2981
Ar 28.6914 24.9819 22.283
Ar 21.0519 24.9077 22.2579
Ar 25.0573 28.6796 22.42
Ar 25.0031 21.0049 22.4216
Ar 28.915 28.7631 22.4322
Ar 21.0951 28.8284 22.5395
Ar 21.1224 21.0903 22.5121
Ar 28.7493 21.3057 22.234
Ar 26.7957 26.9027 30.405
Ar 23.0411 26.9014 30.1827
Ar 23.0513 23.2402 30.198
Ar 26.8751 23.1601 30.3804
Ar 26.9406 26.9608 19.7684
Ar 22.9954 26.8771 19.8297
Ar 22.9907 22.9609 19.7637
Ar 26.7455 23.131 19.5315
38
 Atoms. Timestep: 190000
Ar 26.8427 26.9093 24.9448
Ar 30.7201 26.9759 24.8592
Ar 26.7692 30.7651 24.9182
Ar 23.1126 26.8297 24.9706
Ar 19.2958 26.9831 25.0038
Ar 23.0788 30.8308 24.9567
Ar 23.0901 23.0922 25.0293
Ar 19.4274 23.1216 24.9886
Ar 23.0548 19.2561 25.1659
Ar 26.7992 23.0674 24.9779
Ar 30.737 23.2455 24.9699
Ar 26.7401 19.2302 25.1655
Ar 24.9541 24.8828 27.6288
Ar 28.6778 25.0812 27.4986
Ar 21.181 25.0527 27.7125
Ar 24.9265 28.7104 27.5435
Ar 24.9371 21.1614 27.7281
Ar 28.6966 28.8068 27.6006
Ar 21.2596 28.7461 27.6038
Ar 21.2711 21.3634 27.7115
Ar 28.8251 21.2468 27.5963
Ar 24.9673 25.0069 22.4264
Ar 28.8159 25.0041 22.3679
Ar 21.2169 25.0504 22.2285
Ar 24.9762 28.7761 22.3586
Ar 24.9994 21.1985 22.4444
Ar 28.7245 28.852 22.3729
Ar 21.2561 28.7817 22.3622
Ar 21.2618 21.1967 22.2948
Ar 28.8276 21.0155 22.5579
Ar 26.8106 26.8314 30.2495
Ar 23.1886 26.8246 30.2656
Ar 23.0731 23.1017 30.408
Ar 27.0373 23.1138 30.386
Ar 26.9542 26.7594 19.5978
Ar 23.1322 26.9445 19.7139
Ar 23.2079 23.1874 19.6079
Ar 26.9467 22.9979 19.7834
38
 Atoms. Timestep: 200000
Ar 26.8474 26.8218 24.9627
Ar 30.6912 26.8822 24.9201
Ar 26.867 30.5777 25.0078
Ar 23.0786 26.9074 25.1011
Ar 19.2905 26.82 25.0548
Ar 23.0475 30.6427 24.902
Ar 23.1239 23.1513 24.9937
Ar 19.4342 23.1233 24.9531
Ar 23.0365 19.4833 25.0355
Ar 26.9272 23.1873 24.9842
Ar 30.6446 22.9931 25.0754
Ar 26.93 19.4126 25.045
Ar 25.0456 24.9887 27.6744
Ar 28.7154 24.9831 27.6439
Ar 21.3291 24.9333 27.7646
Ar 25.0476 28.9253 27.7198
Ar 24.8907 21.2218 27.8729
Ar 28.827 28.6227 27.5761
Ar 21.1977 28.895 27.5635
Ar 21.2118 21.3263 27.6947
Ar 28.7606 21.1856 27.8632
Ar 24.9337 25.0107 22.3416
Ar 28.7413 24.9616 22.2214
Ar 21.1921 24.9868 22.2226
Ar 24.9744 28.6798 22.293
Ar 25.1102 21.3007 22.3043
Ar 28.8064 28.6871 22.3146
Ar 21.1494 28.6412 22.3139
Ar 21.2473 21.1199 22.3204
Ar 28.8011 21.2521 22.3008
Ar 26.865 26.8412 30.3627
Ar 22.9673 27.0553 30.2666
Ar 23.1726 23.19 30.3814
Ar 26.8674 23.2298 30.441
Ar 26.879 26.8974 19.717
Ar 23.1008 26.7991 19.5852
Ar 23.1543 23.0136 19.6415
Ar 26.8867 23.2501 19.5639
38
 Atoms. Timestep: 210000
Ar 26.9661 26.9009 25.0416
Ar 30.6751 26.9091 24.9823
Ar 27.056 30.7506 25.0238
Ar 23.114 26.8065 24.9023
Ar 19.2532 26.7671 24.9789
Ar 23.147 30.5459 24.9016
Ar 23.1656 23.142 25.0104
Ar 19.3878 23.0494 24.9706
Ar 23.1051 19.3066 25.035
Ar 26.8967 23.1503 25.1016
Ar 30.5332 23.1112 25.0451
Ar 26.8804 19.3848 24.9763
Ar 25.0963 25.0422 27.6863
Ar 28.7555 25.0289 27.6729
Ar 21.3116 25.0714 27.6393
Ar 24.9659 28.8048 27.5822
Ar 24.8928 21.2447 27.6834
Ar 28.7573 28.7966 27.7176
Ar 21.1702 28.7992 27.5171
Ar 21.157 21.2584 27.75
Ar 28.7319 21.2525 27.808
Ar 25.0658 24.9525 22.3495
Ar 28.8074 25.0229 22.292
Ar 21.2211 24.9512 22.3763
Ar 25.0544 28.6847 22.3293
Ar 24.9052 21.2791 22.3656
Ar 28.8044 28.8627 22.254
Ar 21.0812 28.686 22.341
Ar 21.2095 21.0143 22.3405
Ar 28.6601 21.3727 22.313
Ar 26.9619 26.8869 30.4024
Ar 23.1694 26.9387 30.2388
Ar 23.0842 23.2067 30.3454
Ar 26.7887 23.1726 30.4228
Ar 27.0243 26.8563 19.596
Ar 23.1414 26.831 19.7804
Ar 22.9821 23.0154 19.6248
Ar 26.813 23.144 19.6021
38
 Atoms. Timestep: 220000
Ar 26.9713 26.9255 25.0293
Ar 30.7832 27.0403 24.9022
Ar 26.8966 30.6848 24.9568
Ar 23.1596 26.9339 25.0279
Ar 19.237 26.8281 25.0051
Ar 22.9966 30.7315 24.9835
Ar 23.0785 23.0908 25.002
Ar 19.2221 23.1519 24.9706
Ar 23.0276 19.224 25.0617
Ar 26.8859 23.1371 24.9366
Ar 30.66 23.0793 25.016
Ar 26.7349 19.1634 25.1095
Ar 25.0313 24.9526 27.629
Ar 28.76 25.0311 27.6284
Ar 21.199 25.0092 27.5216
Ar 24.9935 28.8603 27.5047
Ar 24.9164 21.2689 27.7154
Ar 28.7907 28.9112 27.593
Ar 21.1286 28.7537 27.6896
Ar 21.0747 21.2683 27.7195
Ar 28.6469 21.1485 27.6655
Ar 25.0071 24.9606 22.3696
Ar 28.9027 25.113 22.4263
Ar 21.299 25.0042 22.4185
Ar 24.9537 28.7351 22.3258
Ar 25.017 21.1595 22.4163
Ar 28.8486 28.9387 22.2477
Ar 21.1468 28.8449 22.3566
Ar 21.2664 21.1684 22.4305
Ar 28.6816 21.0998 22.408
Ar 26.8751 26.934 30.1935
Ar 23.0617 26.8709 30.1755
Ar 23.2335 23.0984 30.396
Ar 27.002 23.0911 30.3894
Ar 27.068 26.8383 19.731
Ar 23.1492 26.8235 19.7064
Ar 23.1729 23.0778 19.6968
Ar 26.9135 23.0485 19.644
38
 Atoms. Timestep: 230000
Ar 26.9322 26.796 24.929
Ar 30.6542 26.8708 24.9359
Ar 26.9274 30.6164 24.9847
Ar 23.1052 26.8555 25.0067
Ar 19.2048 26.8736 24.8798
Ar 23.1372 30.7628 24.999
Ar 23.2273 23.1885 24.9879
Ar 19.1882 23.0907 25.1167
Ar 23.0295 19.3045 25.0134
Ar 26.9267 23.0565 25.146
Ar 30.4943 23.1555 25.0109
Ar 27.0422 19.2172 25.0117
Ar 25.1041 25.1183 27.6709
Ar 28.8301 25.0158 27.8236
Ar 21.2213 25.0848 27.6488
Ar 25.0571 28.8031 27.5617
Ar 25.0542 21.211 27.7156
Ar 28.8615 28.694 27.6093
Ar 21.0871 28.8466 27.4647
Ar 21.2215 21.2176 27.5627
Ar 28.8562 21.1849 27.6742
Ar 25.042 24.8869 22.2418
Ar 28.8802 24.9989 22.3346
Ar 21.2677 24.9914 22.4635
Ar 25.0101 28.7123 22.3334
Ar 24.9778 21.1659 22.4459
Ar 28.7274 28.8306 22.2905
Ar 21.1126 28.7793 22.3731
Ar 21.2312 21.2008 22.3841
Ar 28.7903 21.1493 22.3385
Ar 26.8239 26.9832 30.4597
Ar 23.0053 27.094 30.2525
Ar 23.0293 23.1436 30.2328
Ar 26.9117 23.1877 30.4435
Ar 26.8519 26.9277 19.6542
Ar 23.0867 26.8959 19.7322
Ar 23.0592 23.1064 19.6193
Ar 26.8233 22.983 19.6471
38
 Atoms. Timestep: 240000
Ar 26.7593 26.7754 25.0836
Ar 30.5513 26.846 25.0968
Ar 26.7908 30.7282 24.8387
Ar 23.1207 26.8832 24.9965
Ar 19.2982 26.9387 24.977
Ar 22.9528 30.7043 24.9601
Ar 23.2022 23.1384 25.045
Ar 19.4086 23.0804 24.9402
Ar 23.0904 19.2666 24.981
Ar 26.8887 23.1709 25.0879
Ar 30.7701 22.9992 25.1235
Ar 26.8108 19.4206 24.9992
Ar 24.9646 25.0562 27.7662
Ar 28.7658 24.9407 27.647
Ar 21.2827 25.1111 27.6735
Ar 25.0541 28.877 27.575
Ar 25.0375 21.3085 27.6124
Ar 28.771 28.8093 27.6325
Ar 21.2902 28.7755 27.6625
Ar 21.2823 21.3702 27.6642
Ar 28.7239 21.1856 27.6524
Ar 25.0648 24.917 22.3154
Ar 28.8308 24.9162 22.2897
Ar 21.3354 24.9775 22.3805
Ar 24.9074 28.6877 22.3233
Ar 24.9586 21.2054 22.2914
Ar 28.6357 28.65 22.4159
Ar 21.2082 28.6554 22.2193
Ar 21.2615 21.1958 22.2975
Ar 28.6685 21.2121 22.4339
Ar 26.9804 26.9426 30.3831
Ar 23.1694 27.1122 30.4245
Ar 23.059 23.2333 30.4973
Ar 26.8353 23.0519 30.3945
Ar 26.8689 26.9189 19.5752
Ar 23.1181 26.8053 19.5677
Ar 23.1003 23.1171 19.5459
Ar 26.9746 23.0167 19.6299
38
 Atoms. Timestep: 250000
Ar 26.9009 26.9333 24.9355
Ar 30.6845 26.6573 25.0429
Ar 26.9527 30.6783 24.7927
Ar 23.1271 26.9093 24.9462
Ar 19.3283 26.9568 24.9347
Ar 23.1501 30.6748 24.9706
Ar 23.1171 23.1059 25.0297
Ar 19.2409 22.9817 24.9784
Ar 23.1733 19.2884 25.0559
Ar 26.8419 23.1911 25.0445
Ar 30.779 23.1379 25.0681
Ar 26.9928 19.4064 25.074
Ar 24.9023 24.9938 27.7369
Ar 28.6916 25.0355 27.6863
Ar 21.1908 25.0341 27.6078
Ar 25.0872 28.7254 27.6071
Ar 24.9349 21.164 27.7377
Ar 28.8036 28.848 27.4664
Ar 21.2716 28.926 27.6281
Ar 21.079 21.0657 27.6657
Ar 28.8826 21.2764 27.6293
Ar 24.9194 24.9776 22.3301
Ar 28.7043 25.0534 22.352
Ar 21.1751 25.0871 22.4149
Ar 24.9977 28.7651 22.2279
Ar 25.0134 21.2221 22.3407
Ar 28.9235 28.6927 22.3403
Ar 21.2846 28.7664 22.3034
Ar 21.2219 21.243 22.4053
Ar 28.7335 21.3113 22.4851
Ar 26.9438 26.9346 30.3326
Ar 23.0388 26.9572 30.3569
Ar 22.9841 23.1253 30.3322
Ar 26.7959 23.0951 30.4582
Ar 26.841 26.9017 19.6571
Ar 23.0206 26.7797 19.5637
Ar 23.1764 22.9687 19.6991
Ar 26.8868 23.1296 19.7621
38
 Atoms. Timestep: 260000
Ar 26.876 26.8852 24.9785
Ar 30.8316 26.9207 24.9976
Ar 26.8831 30.7025 25.0427
Ar 23.1045 26.8566 25.0098
Ar 19.3036 26.823 24.9583
Ar 23.0751 30.7096 25.0125
Ar 23.0261 23.2023 25.1433
Ar 19.3348 23.0411 24.9058
Ar 23.0119 19.3601 25.0024
Ar 26.8571 23.1905 25.0714
Ar 30.6834 23.0223 24.902
Ar 26.825 19.3243 25.1475
Ar 24.9744 25.1294 27.7182
Ar 28.7894 24.9541 27.661
Ar 21.2643 25.0955 27.6632
Ar 24.9165 28.7717 27.6923
Ar 25.0772 21.3627 27.7414
Ar 28.7659 28.6995 27.583
Ar 21.1852 28.8583 27.5679
Ar 21.1984 21.13 27.6732
Ar 28.9035 21.1907 27.745
Ar 25.0063 24.9211 22.3814
Ar 28.7202 24.9594 22.3805
Ar 21.2014 25.0046 22.2308
Ar 25.0106 28.7312 22.3186
Ar 24.9326 21.2692 22.3957
Ar 28.7459 28.7058 22.2492
Ar 21.3619 28.7596 22.2938
Ar 21.087 21.1483 22.1975
Ar 28.6845 21.1283 22.3889
Ar 26.9003 27.0199 30.2751
Ar 23.0985 27.0172 30.456
Ar 22.9633 23.0389 30.3205
Ar 26.9311 23.2774 30.3447
Ar 26.9262 26.8857 19.5434
Ar 23.1019 26.7665 19.6313
Ar 23.2648 23.0218 19.7086
Ar 26.9693 23.1159 19.6669
38
 Atoms. Timestep: 270000
Ar 26.8515 26.8469 24.9671
Ar 30.6027 26.897 24.9944
Ar 26.8827 30.6016 24.8391
Ar 23.0673 26.8103 25.0606
Ar 19.2319 26.9369 24.8593
Ar 23.1112 30.7766 25.0653
Ar 23.2078 23.0921 24.9971
Ar 19.3377 23.1732 24.8064
Ar 23.069 19.2172 25.0421
Ar 26.9819 23.0985 25.0436
Ar 30.7633 23.0268 25.0714
Ar 26.8713 19.3115 25.0753
Ar 24.9756 25.0804 27.6507
Ar 28.7387 25.0788 27.6404
Ar 21.2551 25.0001 27.6222
Ar 24.98 28.8094 27.609
Ar 24.9504 21.2705 27.6964
Ar 28.7583 28.9033 27.6324
Ar 21.1449 28.8575 27.5898
Ar 21.1647 21.1913 27.6592
Ar 28.738 21.1877 27.7246
Ar 24.9493 25.0288 22.3616
Ar 28.7172 24.7202 22.444
Ar 21.2077 25.001 22.3073
Ar 24.9451 28.7374 22.3931
Ar 25.0785 21.1963 22.342
Ar 28.8824 28.6663 22.2358
Ar 21.2016 28.8075 22.4176
Ar 21.3562 21.2296 22.2921
Ar 28.8396 21.0546 22.4182
Ar 26.8451 26.9352 30.421
Ar 23.0702 27.0576 30.3547
Ar 23.1669 23.2231 30.403
Ar 27.0032 23.1709 30.3241
Ar 26.8765 26.8759 19.6149
Ar 23.0693 26.8623 19.6952
Ar 23.1128 23.1784 19.7405
Ar 26.7875 23.0884 19.5888
38
 Atoms. Timestep: 280000
Ar 26.8967 26.7767 25.0356
Ar 30.5678 26.956 25.0474
Ar 27.0217 30.6712 24.9708
Ar 23.1667 26.8482 24.9802
Ar 19.2949 26.9162 25.0458
Ar 23.222 30.6405 24.8368
Ar 23.132 23.0986 25.102
Ar 19.273 23.032 25.2291
Ar 23.1116 19.305 25.034
Ar 26.8715 23.1149 25.0417
Ar 30.5839 23.235 25.0138
Ar 26.812 19.3102 24.9395
Ar 24.9753 25.171 27.7548
Ar 28.6846 24.9569 27.7304
Ar 21.2532 25.0899 27.6371
Ar 24.9485 28.8246 27.6188
Ar 25.1164 21.2808 27.6634
Ar 28.651 28.7935 27.7629
Ar 21.2812 28.9055 27.5315
Ar 21.403 21.1416 27.7361
Ar 28.8457 21.1568 27.6971
Ar 24.9703 24.9548 22.3495
Ar 28.6995 24.9492 22.3732
Ar 21.0871 24.9782 22.2789
Ar 25.0034 28.6106 22.2842
Ar 24.9233 21.1091 22.3122
Ar 28.8855 28.8702 22.2113
Ar 21.2189 28.6504 22.2423
Ar 21.1949 21.2347 22.5084
Ar 28.7552 21.156 22.1616
Ar 26.8108 26.9426 30.4081
Ar 22.9768 27.0614 30.4292
Ar 23.0275 23.2284 30.2519