 DBCSR| CPU Multiplication driver                                           BLAS
 DBCSR| Multrec recursion limit                                              512
 DBCSR| Multiplication stack size                                           1000
 DBCSR| Maximum elements for images                                    UNLIMITED
 DBCSR| Multiplicative factor virtual images                                   1
 DBCSR| Use multiplication densification                                       T
 DBCSR| Multiplication size stacks                                             3
 DBCSR| Use memory pool for CPU allocation                                     F
 DBCSR| Number of 3D layers                                               SINGLE
 DBCSR| Use MPI memory allocation                                              F
 DBCSR| Use RMA algorithm                                                      F
 DBCSR| Use Communication thread                                               T
 DBCSR| Communication thread load                                             87
 DBCSR| MPI: My node id                                                        0
 DBCSR| MPI: Number of nodes                                                   1
 DBCSR| OMP: Current number of threads                                         1
 DBCSR| OMP: Max number of threads                                             1
 DBCSR| Split modifier for TAS multiplication algorithm                  1.0E+00


  **** **** ******  **  PROGRAM STARTED AT               2025-04-01 20:26:12.369
 ***** ** ***  *** **   PROGRAM STARTED ON                          66be7c4ddfac
 **    ****   ******    PROGRAM STARTED BY                             <unknown>
 ***** **    ** ** **   PROGRAM PROCESS ID                                 44266
  **** **  *******  **  PROGRAM STARTED IN /home/jovyan/MMM_2025/Exercise_07/ts_
                                           OPT

 CP2K| version string:                                          CP2K version 9.1
 CP2K| source code revision number:                                  git:d8d7100
 CP2K| cp2kflags: omp libint fftw3 libxc elpa parallel mpi3 scalapack spglib    
 CP2K| is freely available from                            https://www.cp2k.org/
 CP2K| Program compiled at                          Sun Jan  9 17:21:00 UTC 2022
 CP2K| Program compiled on                                       bos02-arm64-063
 CP2K| Program compiled for                               Linux-aarch64-gfortran
 CP2K| Data directory path                                       /usr/share/cp2k
 CP2K| Input file name                                              ts_dimer.inp

 GLOBAL| Force Environment number                                              1
 GLOBAL| Basis set file name                                        BASIS_MOLOPT
 GLOBAL| Potential file name                                      GTH_POTENTIALS
 GLOBAL| MM Potential file name                                     MM_POTENTIAL
 GLOBAL| Coordinate file name                                             ts.xyz
 GLOBAL| Method name                                                        CP2K
 GLOBAL| Project name                                                         ts
 GLOBAL| Run type                                                        GEO_OPT
 GLOBAL| FFT library                                                       FFTW3
 GLOBAL| Diagonalization library                                            ELPA
 GLOBAL| Minimum number of eigenvectors for ELPA usage                        16
 GLOBAL| Orthonormality check for eigenvectors                          DISABLED
 GLOBAL| Matrix multiplication library                                 ScaLAPACK
 GLOBAL| All-to-all communication in single precision                          F
 GLOBAL| FFTs using library dependent lengths                                  F
 GLOBAL| Grid backend                                                       AUTO
 GLOBAL| Global print level                                                  LOW
 GLOBAL| MPI I/O enabled                                                       T
 GLOBAL| Total number of message passing processes                             1
 GLOBAL| Number of threads for this process                                    1
 GLOBAL| This output is from process                                           0
 GLOBAL| Stack size for threads created by OpenMP (OMP_STACKSIZE)        default
 GLOBAL| CPU model name                                                  UNKNOWN

 MEMORY| system memory details [Kb]
 MEMORY|                        rank 0           min           max       average
 MEMORY| MemTotal              8025220       8025220       8025220       8025220
 MEMORY| MemFree               4844368       4844368       4844368       4844368
 MEMORY| Buffers                113748        113748        113748        113748
 MEMORY| Cached                 818112        818112        818112        818112
 MEMORY| Slab                   240548        240548        240548        240548
 MEMORY| SReclaimable           186132        186132        186132        186132
 MEMORY| MemLikelyFree         5962360       5962360       5962360       5962360


 GENERATE|  Preliminary Number of Bonds generated:                             0
 GENERATE|  Achieved consistency in connectivity generation.

 *******************************************************************************
 *******************************************************************************
 **                                                                           **
 **     #####                         ##              ##                      **
 **    ##   ##            ##          ##              ##                      **
 **   ##     ##                       ##            ######                    **
 **   ##     ##  ##   ##  ##   #####  ##  ##   ####   ##    #####    #####    **
 **   ##     ##  ##   ##  ##  ##      ## ##   ##      ##   ##   ##  ##   ##   **
 **   ##  ## ##  ##   ##  ##  ##      ####     ###    ##   ######   ######    **
 **    ##  ###   ##   ##  ##  ##      ## ##      ##   ##   ##       ##        **
 **     #######   #####   ##   #####  ##  ##  ####    ##    #####   ##        **
 **           ##                                                    ##        **
 **                                                                           **
 **                                                ... make the atoms dance   **
 **                                                                           **
 **            Copyright (C) by CP2K developers group (2000-2021)             **
 **                      J. Chem. Phys. 152, 194103 (2020)                    **
 **                                                                           **
 *******************************************************************************


 TOTAL NUMBERS AND MAXIMUM NUMBERS

  Total number of            - Atomic kinds:                                   3
                             - Atoms:                                          9
                             - Shell sets:                                     9
                             - Shells:                                        54
                             - Primitive Cartesian functions:                 63
                             - Cartesian basis functions:                    126
                             - Spherical basis functions:                    120

  Maximum angular momentum of- Orbital basis functions:                        2
                             - Local part of the GTH pseudopotential:          2
                             - Non-local part of the GTH pseudopotential:      0


 SCF PARAMETERS         Density guess:                                   RESTART
                        --------------------------------------------------------
                        max_scf:                                              50
                        max_scf_history:                                       0
                        max_diis:                                              4
                        --------------------------------------------------------
                        eps_scf:                                        1.00E-06
                        eps_scf_history:                                0.00E+00
                        eps_diis:                                       1.00E-01
                        eps_eigval:                                     1.00E-05
                        --------------------------------------------------------
                        level_shift [a.u.]:                                 0.00
                        --------------------------------------------------------
                        Outer loop SCF in use 
                        No variables optimised in outer loop
                        eps_scf                                         1.00E-06
                        max_scf                                              500
                        No outer loop optimization
                        step_size                                       5.00E-01

 PW_GRID| Information for grid number                                          1
 PW_GRID| Cutoff [a.u.]                                                    200.0
 PW_GRID| spherical cutoff:                                                   NO
 PW_GRID|   Bounds   1            -62      62                Points:         125
 PW_GRID|   Bounds   2            -62      62                Points:         125
 PW_GRID|   Bounds   3            -62      62                Points:         125
 PW_GRID| Volume element (a.u.^3)  0.3455E-02     Volume (a.u.^3)      6748.3346
 PW_GRID| Grid span                                                    FULLSPACE

 PW_GRID| Information for grid number                                          2
 PW_GRID| Number of the reference grid                                         1
 PW_GRID| Cutoff [a.u.]                                                     66.7
 PW_GRID| spherical cutoff:                                                   NO
 PW_GRID|   Bounds   1            -36      35                Points:          72
 PW_GRID|   Bounds   2            -36      35                Points:          72
 PW_GRID|   Bounds   3            -36      35                Points:          72
 PW_GRID| Volume element (a.u.^3)  0.1808E-01     Volume (a.u.^3)      6748.3346
 PW_GRID| Grid span                                                    FULLSPACE

 PW_GRID| Information for grid number                                          3
 PW_GRID| Number of the reference grid                                         1
 PW_GRID| Cutoff [a.u.]                                                     22.2
 PW_GRID| spherical cutoff:                                                   NO
 PW_GRID|   Bounds   1            -22      22                Points:          45
 PW_GRID|   Bounds   2            -22      22                Points:          45
 PW_GRID|   Bounds   3            -22      22                Points:          45
 PW_GRID| Volume element (a.u.^3)  0.7406E-01     Volume (a.u.^3)      6748.3346
 PW_GRID| Grid span                                                    FULLSPACE

 PW_GRID| Information for grid number                                          4
 PW_GRID| Number of the reference grid                                         1
 PW_GRID| Cutoff [a.u.]                                                      7.4
 PW_GRID| spherical cutoff:                                                   NO
 PW_GRID|   Bounds   1            -12      11                Points:          24
 PW_GRID|   Bounds   2            -12      11                Points:          24
 PW_GRID|   Bounds   3            -12      11                Points:          24
 PW_GRID| Volume element (a.u.^3)  0.4882         Volume (a.u.^3)      6748.3346
 PW_GRID| Grid span                                                    FULLSPACE

 POISSON| Solver                                                        PERIODIC
 POISSON| Periodicity                                                        XYZ

 RS_GRID| Information for grid number                                          1
 RS_GRID|   Bounds   1            -62      62                Points:         125
 RS_GRID|   Bounds   2            -62      62                Points:         125
 RS_GRID|   Bounds   3            -62      62                Points:         125

 RS_GRID| Information for grid number                                          2
 RS_GRID|   Bounds   1            -36      35                Points:          72
 RS_GRID|   Bounds   2            -36      35                Points:          72
 RS_GRID|   Bounds   3            -36      35                Points:          72

 RS_GRID| Information for grid number                                          3
 RS_GRID|   Bounds   1            -22      22                Points:          45
 RS_GRID|   Bounds   2            -22      22                Points:          45
 RS_GRID|   Bounds   3            -22      22                Points:          45

 RS_GRID| Information for grid number                                          4
 RS_GRID|   Bounds   1            -12      11                Points:          24
 RS_GRID|   Bounds   2            -12      11                Points:          24
 RS_GRID|   Bounds   3            -12      11                Points:          24

 *******************************************************************************
 ***                     STARTING GEOMETRY OPTIMIZATION                      ***
 ***                           CONJUGATE GRADIENTS                           ***
 *******************************************************************************

 Number of electrons:                                                         20
 Number of occupied orbitals:                                                 10
 Number of molecular orbitals:                                                10

 Number of orbital functions:                                                120
 Number of independent orbital functions:                                    120

 Extrapolation method: initial_guess


 SCF WAVEFUNCTION OPTIMIZATION

  ----------------------------------- OT ---------------------------------------
  Minimizer      : DIIS                : direct inversion
                                         in the iterative subspace
                                         using   7 DIIS vectors
                                         safer DIIS on
  Preconditioner : FULL_SINGLE_INVERSE : inversion of 
                                         H + eS - 2*(Sc)(c^T*H*c+const)(Sc)^T
  Precond_solver : DEFAULT
  stepsize       :    0.08000000                  energy_gap     :    0.08000000
  eps_taylor     :   0.10000E-15                  max_taylor     :             4
  ----------------------------------- OT ---------------------------------------

  Step     Update method      Time    Convergence         Total energy    Change
  ------------------------------------------------------------------------------
     1 OT DIIS     0.80E-01    1.9     0.00894381       -30.8489193388 -3.08E+01
     2 OT DIIS     0.80E-01    1.4     0.00512913       -30.8544358890 -5.52E-03
     3 OT DIIS     0.80E-01    1.4     0.00306469       -30.8566233812 -2.19E-03
     4 OT DIIS     0.80E-01    1.5     0.00103964       -30.8575674597 -9.44E-04
     5 OT DIIS     0.80E-01    1.4     0.00049185       -30.8576866776 -1.19E-04
     6 OT DIIS     0.80E-01    2.6     0.00020938       -30.8577126117 -2.59E-05
     7 OT DIIS     0.80E-01    2.8     0.00009509       -30.8577177357 -5.12E-06
     8 OT DIIS     0.80E-01    2.3     0.00004163       -30.8577189706 -1.23E-06
     9 OT DIIS     0.80E-01    1.7     0.00002167       -30.8577191926 -2.22E-07
    10 OT DIIS     0.80E-01    1.5     0.00000870       -30.8577192601 -6.75E-08
    11 OT DIIS     0.80E-01    5.1     0.00000411       -30.8577192696 -9.44E-09
    12 OT DIIS     0.80E-01    2.2     0.00000240       -30.8577192711 -1.57E-09
    13 OT DIIS     0.80E-01    1.4     0.00000104       -30.8577192717 -6.09E-10
    14 OT DIIS     0.80E-01    1.4     0.00000052       -30.8577192719 -1.19E-10

  *** SCF run converged in    14 steps ***


  Electronic density on regular grids:        -19.5689734620        0.4310265380
  Core density on regular grids:               20.0000000000       -0.0000000000
  Hard and soft densities (Lebedev):         -305.8672073066     -305.4361793672
  Total Rho_soft + Rho1_hard - Rho1_soft      -20.0000014014
  Total charge density (r-space):              -0.0000014014
  Total Rho_soft + Rho0_soft (g-space):        -0.0000014686

  Overlap energy of the core charge distribution:               0.00000243054037
  Self energy of the core charge distribution:                -76.65906668574564
  Core Hamiltonian energy:                                     23.16177997032698
  Hartree energy:                                              45.51523411536699
  Exchange-correlation energy:                                 -8.68142562855926
  Dispersion energy:                                           -0.00201626621296

  GAPW| Exc from hard and soft atomic rho1:                    -0.40316145917404
  GAPW| local Eh = 1 center integrals:                        -13.78906574839479

  Total energy:                                               -30.85771927185235

  outer SCF iter =    1 RMS gradient =   0.52E-06 energy =        -30.8577192719
  outer SCF loop converged in   1 iterations or   14 steps


 ENERGY| Total FORCE_EVAL ( QS ) energy [a.u.]:              -30.857719271877201

 *******************************************************************************
 ***                        OPTIMIZING DIMER ROTATION                        ***
 ***                           CONJUGATE GRADIENTS                           ***
 *******************************************************************************

 Number of electrons:                                                         20
 Number of occupied orbitals:                                                 10
 Number of molecular orbitals:                                                10

 Number of orbital functions:                                                120
 Number of independent orbital functions:                                    120

 Extrapolation method: ASPC


 SCF WAVEFUNCTION OPTIMIZATION

  ----------------------------------- OT ---------------------------------------
  Minimizer      : DIIS                : direct inversion
                                         in the iterative subspace
                                         using   7 DIIS vectors
                                         safer DIIS on
  Preconditioner : FULL_SINGLE_INVERSE : inversion of 
                                         H + eS - 2*(Sc)(c^T*H*c+const)(Sc)^T
  Precond_solver : DEFAULT
  stepsize       :    0.08000000                  energy_gap     :    0.08000000
  eps_taylor     :   0.10000E-15                  max_taylor     :             4
  ----------------------------------- OT ---------------------------------------

  Step     Update method      Time    Convergence         Total energy    Change
  ------------------------------------------------------------------------------
     1 OT DIIS     0.80E-01    1.2     0.00031068       -30.8582876689 -3.09E+01
     2 OT DIIS     0.80E-01    1.6     0.00018746       -30.8582946640 -7.00E-06
     3 OT DIIS     0.80E-01    1.5     0.00010727       -30.8582980954 -3.43E-06
     4 OT DIIS     0.80E-01    1.5     0.00004076       -30.8582994044 -1.31E-06
     5 OT DIIS     0.80E-01    1.4     0.00002120       -30.8582995941 -1.90E-07
     6 OT DIIS     0.80E-01    1.5     0.00000999       -30.8582996437 -4.96E-08
     7 OT DIIS     0.80E-01    1.5     0.00000467       -30.8582996562 -1.25E-08
     8 OT DIIS     0.80E-01    1.5     0.00000198       -30.8582996592 -2.99E-09
     9 OT DIIS     0.80E-01    1.5     0.00000091       -30.8582996597 -4.93E-10

  *** SCF run converged in     9 steps ***


  Electronic density on regular grids:        -19.5689330301        0.4310669699
  Core density on regular grids:               20.0000000000       -0.0000000000
  Hard and soft densities (Lebedev):         -306.6893338581     -306.2582655427
  Total Rho_soft + Rho1_hard - Rho1_soft      -20.0000013455
  Total charge density (r-space):              -0.0000013455
  Total Rho_soft + Rho0_soft (g-space):        -0.0000014125

  Overlap energy of the core charge distribution:               0.00000242895743
  Self energy of the core charge distribution:                -76.65906668574564
  Core Hamiltonian energy:                                     23.16945022927259
  Hartree energy:                                              45.50892243736766
  Exchange-correlation energy:                                 -8.68397186566752
  Dispersion energy:                                           -0.00201204236160

  GAPW| Exc from hard and soft atomic rho1:                    -0.40314807655207
  GAPW| local Eh = 1 center integrals:                        -13.78847608493784

  Total energy:                                               -30.85829965966700

  outer SCF iter =    1 RMS gradient =   0.91E-06 energy =        -30.8582996597
  outer SCF loop converged in   1 iterations or    9 steps


 ENERGY| Total FORCE_EVAL ( QS ) energy [a.u.]:              -30.858299659774698

 ----  Informations at rotational step =     0 -----
  Optimization Method        =                   SD
  Local Curvature            =         0.0778431766
  Total Rotational Force     =         0.0101445657
  Used time                  =               16.665
 ---------------------------------------------------

 --------------------------
 OPTIMIZATION STEP:      1
 --------------------------

 Number of electrons:                                                         20
 Number of occupied orbitals:                                                 10
 Number of molecular orbitals:                                                10

 Number of orbital functions:                                                120
 Number of independent orbital functions:                                    120

 Extrapolation method: ASPC


 SCF WAVEFUNCTION OPTIMIZATION

  ----------------------------------- OT ---------------------------------------
  Minimizer      : DIIS                : direct inversion
                                         in the iterative subspace
                                         using   7 DIIS vectors
                                         safer DIIS on
  Preconditioner : FULL_SINGLE_INVERSE : inversion of 
                                         H + eS - 2*(Sc)(c^T*H*c+const)(Sc)^T
  Precond_solver : DEFAULT
  stepsize       :    0.08000000                  energy_gap     :    0.08000000
  eps_taylor     :   0.10000E-15                  max_taylor     :             4
  ----------------------------------- OT ---------------------------------------

  Step     Update method      Time    Convergence         Total energy    Change
  ------------------------------------------------------------------------------
     1 OT DIIS     0.80E-01    1.0     0.00069612       -30.8558908008 -3.09E+01
     2 OT DIIS     0.80E-01    1.4     0.00040362       -30.8559206661 -2.99E-05
     3 OT DIIS     0.80E-01    1.4     0.00024665       -30.8559304715 -9.81E-06
     4 OT DIIS     0.80E-01    1.6     0.00006872       -30.8559368851 -6.41E-06
     5 OT DIIS     0.80E-01    1.6     0.00003458       -30.8559373310 -4.46E-07
     6 OT DIIS     0.80E-01    1.4     0.00001148       -30.8559374541 -1.23E-07
     7 OT DIIS     0.80E-01    1.5     0.00000461       -30.8559374698 -1.57E-08
     8 OT DIIS     0.80E-01    1.4     0.00000235       -30.8559374723 -2.47E-09
     9 OT DIIS     0.80E-01    1.4     0.00000127       -30.8559374730 -6.70E-10
    10 OT DIIS     0.80E-01    1.4     0.00000046       -30.8559374732 -2.45E-10

  *** SCF run converged in    10 steps ***


  Electronic density on regular grids:        -19.5677499761        0.4322500239
  Core density on regular grids:               20.0000000000       -0.0000000000
  Hard and soft densities (Lebedev):         -306.7429476769     -306.3106960129
  Total Rho_soft + Rho1_hard - Rho1_soft      -20.0000016400
  Total charge density (r-space):              -0.0000016400
  Total Rho_soft + Rho0_soft (g-space):        -0.0000017067

  Overlap energy of the core charge distribution:               0.00000265289129
  Self energy of the core charge distribution:                -76.65906668574564
  Core Hamiltonian energy:                                     23.17926293654956
  Hartree energy:                                              45.50078360941930
  Exchange-correlation energy:                                 -8.68471803967873
  Dispersion energy:                                           -0.00201657891610

  GAPW| Exc from hard and soft atomic rho1:                    -0.40443791686644
  GAPW| local Eh = 1 center integrals:                        -13.78574745086750

  Total energy:                                               -30.85593747321426

  outer SCF iter =    1 RMS gradient =   0.46E-06 energy =        -30.8559374732
  outer SCF loop converged in   1 iterations or   10 steps


 ENERGY| Total FORCE_EVAL ( QS ) energy [a.u.]:              -30.855937473240527

 ----  Informations at rotational step =     1 -----
  Optimization Method        =                   SD
  Local Curvature            =         0.0262394689
  Total Rotational Force     =         0.0064704702
  Real Force change          =        -0.0036740954
  Decrease in rotational force =                YES
  Used time                  =               17.524

  Convergence check :
  Predicted angle step size  =         0.6442639216
  Effective angle step size  =         0.1899369062
  Conv. limit for angle step size =    0.0087266463
  Convergence in angle step size   =             NO
 ---------------------------------------------------

 --------------------------
 OPTIMIZATION STEP:      2
 --------------------------

 Number of electrons:                                                         20
 Number of occupied orbitals:                                                 10
 Number of molecular orbitals:                                                10

 Number of orbital functions:                                                120
 Number of independent orbital functions:                                    120

 Extrapolation method: ASPC


 SCF WAVEFUNCTION OPTIMIZATION

  ----------------------------------- OT ---------------------------------------
  Minimizer      : DIIS                : direct inversion
                                         in the iterative subspace
                                         using   7 DIIS vectors
                                         safer DIIS on
  Preconditioner : FULL_SINGLE_INVERSE : inversion of 
                                         H + eS - 2*(Sc)(c^T*H*c+const)(Sc)^T
  Precond_solver : DEFAULT
  stepsize       :    0.08000000                  energy_gap     :    0.08000000
  eps_taylor     :   0.10000E-15                  max_taylor     :             4
  ----------------------------------- OT ---------------------------------------

  Step     Update method      Time    Convergence         Total energy    Change
  ------------------------------------------------------------------------------
     1 OT DIIS     0.80E-01    1.6     0.00148590       -30.8590650903 -3.09E+01
     2 OT DIIS     0.80E-01    1.4     0.00085327       -30.8591918831 -1.27E-04
     3 OT DIIS     0.80E-01    1.4     0.00050309       -30.8592307859 -3.89E-05
     4 OT DIIS     0.80E-01    1.4     0.00014595       -30.8592569332 -2.61E-05
     5 OT DIIS     0.80E-01    1.4     0.00006886       -30.8592588501 -1.92E-06
     6 OT DIIS     0.80E-01    1.4     0.00002291       -30.8592593306 -4.81E-07
     7 OT DIIS     0.80E-01    1.4     0.00000879       -30.8592593858 -5.52E-08
     8 OT DIIS     0.80E-01    1.5     0.00000341       -30.8592593940 -8.25E-09
     9 OT DIIS     0.80E-01    1.4     0.00000160       -30.8592593951 -1.14E-09
    10 OT DIIS     0.80E-01    1.3     0.00000070       -30.8592593954 -3.01E-10

  *** SCF run converged in    10 steps ***


  Electronic density on regular grids:        -19.5700040638        0.4299959362
  Core density on regular grids:               20.0000000000       -0.0000000000
  Hard and soft densities (Lebedev):         -305.9937278072     -305.5637306744
  Total Rho_soft + Rho1_hard - Rho1_soft      -20.0000011966
  Total charge density (r-space):              -0.0000011966
  Total Rho_soft + Rho0_soft (g-space):        -0.0000012639

  Overlap energy of the core charge distribution:               0.00000225962667
  Self energy of the core charge distribution:                -76.65906668574564
  Core Hamiltonian energy:                                     23.15178080395775
  Hartree energy:                                              45.52297750870647
  Exchange-correlation energy:                                 -8.67981560049276
  Dispersion energy:                                           -0.00201978538740

  GAPW| Exc from hard and soft atomic rho1:                    -0.40205483705620
  GAPW| local Eh = 1 center integrals:                        -13.79106305905884

  Total energy:                                               -30.85925939544995

  outer SCF iter =    1 RMS gradient =   0.70E-06 energy =        -30.8592593954
  outer SCF loop converged in   1 iterations or   10 steps


 ENERGY| Total FORCE_EVAL ( QS ) energy [a.u.]:              -30.859259395507507

 ----  Informations at rotational step =     2 -----
  Optimization Method        =                   SD
  Local Curvature            =        -0.0054952842
  Total Rotational Force     =         0.0068455872
  Real Force change          =         0.0003751169
  Decrease in rotational force =                 NO
  Used time                  =               18.237

  Convergence check :
  Predicted angle step size  =         0.7106554208
  Effective angle step size  =         0.1807141054
  Conv. limit for angle step size =    0.0087266463
  Convergence in angle step size   =             NO
 ---------------------------------------------------

 --------------------------
 OPTIMIZATION STEP:      3
 --------------------------

 Number of electrons:                                                         20
 Number of occupied orbitals:                                                 10
 Number of molecular orbitals:                                                10

 Number of orbital functions:                                                120
 Number of independent orbital functions:                                    120

 Extrapolation method: ASPC


 SCF WAVEFUNCTION OPTIMIZATION

  ----------------------------------- OT ---------------------------------------
  Minimizer      : DIIS                : direct inversion
                                         in the iterative subspace
                                         using   7 DIIS vectors
                                         safer DIIS on
  Preconditioner : FULL_SINGLE_INVERSE : inversion of 
                                         H + eS - 2*(Sc)(c^T*H*c+const)(Sc)^T
  Precond_solver : DEFAULT
  stepsize       :    0.08000000                  energy_gap     :    0.08000000
  eps_taylor     :   0.10000E-15                  max_taylor     :             4
  ----------------------------------- OT ---------------------------------------

  Step     Update method      Time    Convergence         Total energy    Change
  ------------------------------------------------------------------------------
     1 OT DIIS     0.80E-01    1.1     0.00257244       -30.8546923167 -3.09E+01
     2 OT DIIS     0.80E-01    1.8     0.00143938       -30.8550713282 -3.79E-04
     3 OT DIIS     0.80E-01    1.4     0.00084406       -30.8551850142 -1.14E-04
     4 OT DIIS     0.80E-01    1.4     0.00024784       -30.8552587184 -7.37E-05
     5 OT DIIS     0.80E-01    1.3     0.00011199       -30.8552645443 -5.83E-06
     6 OT DIIS     0.80E-01    1.4     0.00003927       -30.8552658173 -1.27E-06
     7 OT DIIS     0.80E-01    1.4     0.00001518       -30.8552659799 -1.63E-07
     8 OT DIIS     0.80E-01    1.4     0.00000581       -30.8552660050 -2.51E-08
     9 OT DIIS     0.80E-01    1.4     0.00000274       -30.8552660084 -3.41E-09
    10 OT DIIS     0.80E-01    1.4     0.00000124       -30.8552660093 -8.99E-10
    11 OT DIIS     0.80E-01    1.3     0.00000057       -30.8552660095 -1.92E-10

  *** SCF run converged in    11 steps ***


  Electronic density on regular grids:        -19.5676498879        0.4323501121
  Core density on regular grids:               20.0000000000       -0.0000000000
  Hard and soft densities (Lebedev):         -306.1627398517     -305.7303880343
  Total Rho_soft + Rho1_hard - Rho1_soft      -20.0000017053
  Total charge density (r-space):              -0.0000017053
  Total Rho_soft + Rho0_soft (g-space):        -0.0000017720

  Overlap energy of the core charge distribution:               0.00000269683658
  Self energy of the core charge distribution:                -76.65906668574564
  Core Hamiltonian energy:                                     23.17668933266349
  Hartree energy:                                              45.50285049013068
  Exchange-correlation energy:                                 -8.68345239138655
  Dispersion energy:                                           -0.00202284684853

  GAPW| Exc from hard and soft atomic rho1:                    -0.40457629491618
  GAPW| local Eh = 1 center integrals:                        -13.78569031022197

  Total energy:                                               -30.85526600948814

  outer SCF iter =    1 RMS gradient =   0.57E-06 energy =        -30.8552660095
  outer SCF loop converged in   1 iterations or   11 steps


 ENERGY| Total FORCE_EVAL ( QS ) energy [a.u.]:              -30.855266009514054

 ----  Informations at rotational step =     3 -----
  Optimization Method        =                   SD
  Local Curvature            =        -0.0316255748
  Total Rotational Force     =         0.0061901730
  Real Force change          =        -0.0006554142
  Decrease in rotational force =                YES
  Used time                  =               18.424

  Convergence check :
  Predicted angle step size  =         0.7721742047
  Effective angle step size  =         0.1470810267
  Conv. limit for angle step size =    0.0087266463
  Convergence in angle step size   =             NO
 ---------------------------------------------------

 --------------------------
 OPTIMIZATION STEP:      4
 --------------------------

 Number of electrons:                                                         20
 Number of occupied orbitals:                                                 10
 Number of molecular orbitals:                                                10

 Number of orbital functions:                                                120
 Number of independent orbital functions:                                    120

 Extrapolation method: ASPC


 SCF WAVEFUNCTION OPTIMIZATION

  ----------------------------------- OT ---------------------------------------
  Minimizer      : DIIS                : direct inversion
                                         in the iterative subspace
                                         using   7 DIIS vectors
                                         safer DIIS on
  Preconditioner : FULL_SINGLE_INVERSE : inversion of 
                                         H + eS - 2*(Sc)(c^T*H*c+const)(Sc)^T
  Precond_solver : DEFAULT
  stepsize       :    0.08000000                  energy_gap     :    0.08000000
  eps_taylor     :   0.10000E-15                  max_taylor     :             4
  ----------------------------------- OT ---------------------------------------

  Step     Update method      Time    Convergence         Total energy    Change
  ------------------------------------------------------------------------------
     1 OT DIIS     0.80E-01    1.1     0.00369137       -30.8580551927 -3.09E+01
     2 OT DIIS     0.80E-01    1.6     0.00210617       -30.8588359394 -7.81E-04
     3 OT DIIS     0.80E-01    1.4     0.00124392       -30.8590716134 -2.36E-04
     4 OT DIIS     0.80E-01    1.4     0.00037803       -30.8592278034 -1.56E-04
     5 OT DIIS     0.80E-01    1.4     0.00017329       -30.8592405381 -1.27E-05
     6 OT DIIS     0.80E-01    1.4     0.00006111       -30.8592435397 -3.00E-06
     7 OT DIIS     0.80E-01    1.5     0.00002346       -30.8592439249 -3.85E-07
     8 OT DIIS     0.80E-01    1.5     0.00000915       -30.8592439827 -5.78E-08
     9 OT DIIS     0.80E-01    1.4     0.00000410       -30.8592439909 -8.17E-09
    10 OT DIIS     0.80E-01    1.4     0.00000193       -30.8592439928 -1.88E-09
    11 OT DIIS     0.80E-01    1.4     0.00000080       -30.8592439932 -4.59E-10

  *** SCF run converged in    11 steps ***


  Electronic density on regular grids:        -19.5700927298        0.4299072702
  Core density on regular grids:               20.0000000000       -0.0000000000
  Hard and soft densities (Lebedev):         -305.7263263404     -305.2964178833
  Total Rho_soft + Rho1_hard - Rho1_soft      -20.0000011870
  Total charge density (r-space):              -0.0000011870
  Total Rho_soft + Rho0_soft (g-space):        -0.0000012546

  Overlap energy of the core charge distribution:               0.00000225391740
  Self energy of the core charge distribution:                -76.65906668574564
  Core Hamiltonian energy:                                     23.15005596167504
  Hartree energy:                                              45.52432211936623
  Exchange-correlation energy:                                 -8.67929309850014
  Dispersion energy:                                           -0.00202257118797

  GAPW| Exc from hard and soft atomic rho1:                    -0.40196567648536
  GAPW| local Eh = 1 center integrals:                        -13.79127629626609

  Total energy:                                               -30.85924399322654

  outer SCF iter =    1 RMS gradient =   0.80E-06 energy =        -30.8592439932
  outer SCF loop converged in   1 iterations or   11 steps


 ENERGY| Total FORCE_EVAL ( QS ) energy [a.u.]:              -30.859243993287777

 ----  Informations at rotational step =     4 -----
  Optimization Method        =                   SD
  Local Curvature            =        -0.0596798372
  Total Rotational Force     =         0.0067905478
  Real Force change          =         0.0006003747
  Decrease in rotational force =                 NO
  Used time                  =               18.446

  Convergence check :
  Predicted angle step size  =         0.6869192350
  Effective angle step size  =         0.1633654804
  Conv. limit for angle step size =    0.0087266463
  Convergence in angle step size   =             NO
 ---------------------------------------------------

 --------------------------
 OPTIMIZATION STEP:      5
 --------------------------

 Number of electrons:                                                         20
 Number of occupied orbitals:                                                 10
 Number of molecular orbitals:                                                10

 Number of orbital functions:                                                120
 Number of independent orbital functions:                                    120

 Extrapolation method: ASPC


 SCF WAVEFUNCTION OPTIMIZATION

  ----------------------------------- OT ---------------------------------------
  Minimizer      : DIIS                : direct inversion
                                         in the iterative subspace
                                         using   7 DIIS vectors
                                         safer DIIS on
  Preconditioner : FULL_SINGLE_INVERSE : inversion of 
                                         H + eS - 2*(Sc)(c^T*H*c+const)(Sc)^T
  Precond_solver : DEFAULT
  stepsize       :    0.08000000                  energy_gap     :    0.08000000
  eps_taylor     :   0.10000E-15                  max_taylor     :             4
  ----------------------------------- OT ---------------------------------------

  Step     Update method      Time    Convergence         Total energy    Change
  ------------------------------------------------------------------------------
     1 OT DIIS     0.80E-01    1.0     0.00395639       -30.8543461635 -3.09E+01
     2 OT DIIS     0.80E-01    1.4     0.00220941       -30.8552370642 -8.91E-04
     3 OT DIIS     0.80E-01    1.3     0.00128971       -30.8555037374 -2.67E-04
     4 OT DIIS     0.80E-01    1.4     0.00037629       -30.8556769195 -1.73E-04
     5 OT DIIS     0.80E-01    1.4     0.00016934       -30.8556904704 -1.36E-05
     6 OT DIIS     0.80E-01    1.3     0.00005905       -30.8556934037 -2.93E-06
     7 OT DIIS     0.80E-01    1.4     0.00002307       -30.8556937725 -3.69E-07
     8 OT DIIS     0.80E-01    1.4     0.00000888       -30.8556938309 -5.84E-08
     9 OT DIIS     0.80E-01    1.4     0.00000426       -30.8556938390 -8.05E-09
    10 OT DIIS     0.80E-01    1.4     0.00000192       -30.8556938412 -2.24E-09
    11 OT DIIS     0.80E-01    1.4     0.00000090       -30.8556938417 -4.67E-10

  *** SCF run converged in    11 steps ***


  Electronic density on regular grids:        -19.5679017572        0.4320982428
  Core density on regular grids:               20.0000000000       -0.0000000000
  Hard and soft densities (Lebedev):         -306.1106106958     -305.6785108114
  Total Rho_soft + Rho1_hard - Rho1_soft      -20.0000016417
  Total charge density (r-space):              -0.0000016417
  Total Rho_soft + Rho0_soft (g-space):        -0.0000017084

  Overlap energy of the core charge distribution:               0.00000264449817
  Self energy of the core charge distribution:                -76.65906668574564
  Core Hamiltonian energy:                                     23.17438468543165
  Hartree energy:                                              45.50459173588182
  Exchange-correlation energy:                                 -8.68310538999626
  Dispersion energy:                                           -0.00202376074738

  GAPW| Exc from hard and soft atomic rho1:                    -0.40430106550077
  GAPW| local Eh = 1 center integrals:                        -13.78617600548889

  Total energy:                                               -30.85569384166730

  outer SCF iter =    1 RMS gradient =   0.90E-06 energy =        -30.8556938417
  outer SCF loop converged in   1 iterations or   11 steps


 ENERGY| Total FORCE_EVAL ( QS ) energy [a.u.]:              -30.855693841736336

 ----  Informations at rotational step =     5 -----
  Optimization Method        =                   SD
  Local Curvature            =        -0.0853652015
  Total Rotational Force     =         0.0062626440
  Real Force change          =        -0.0005279037
  Decrease in rotational force =                 NO
  Used time                  =               17.883

  Convergence check :
  Predicted angle step size  =         0.6279424778
  Effective angle step size  =         0.1482741041
  Conv. limit for angle step size =    0.0087266463
  Convergence in angle step size   =             NO
 ---------------------------------------------------

 --------------------------
 OPTIMIZATION STEP:      6
 --------------------------

 Number of electrons:                                                         20
 Number of occupied orbitals:                                                 10
 Number of molecular orbitals:                                                10

 Number of orbital functions:                                                120
 Number of independent orbital functions:                                    120

 Extrapolation method: ASPC


 SCF WAVEFUNCTION OPTIMIZATION

  ----------------------------------- OT ---------------------------------------
  Minimizer      : DIIS                : direct inversion
                                         in the iterative subspace
                                         using   7 DIIS vectors
                                         safer DIIS on
  Preconditioner : FULL_SINGLE_INVERSE : inversion of 
                                         H + eS - 2*(Sc)(c^T*H*c+const)(Sc)^T
  Precond_solver : DEFAULT
  stepsize       :    0.08000000                  energy_gap     :    0.08000000
  eps_taylor     :   0.10000E-15                  max_taylor     :             4
  ----------------------------------- OT ---------------------------------------

  Step     Update method      Time    Convergence         Total energy    Change
  ------------------------------------------------------------------------------
     1 OT DIIS     0.80E-01    1.0     0.00376713       -30.8576757359 -3.09E+01
     2 OT DIIS     0.80E-01    1.4     0.00215042       -30.8584872865 -8.12E-04
     3 OT DIIS     0.80E-01    1.4     0.00126803       -30.8587320467 -2.45E-04
     4 OT DIIS     0.80E-01    1.4     0.00038461       -30.8588943222 -1.62E-04
     5 OT DIIS     0.80E-01    1.5     0.00017670       -30.8589074955 -1.32E-05
     6 OT DIIS     0.80E-01    1.5     0.00006242       -30.8589106106 -3.12E-06
     7 OT DIIS     0.80E-01    1.4     0.00002390       -30.8589110123 -4.02E-07
     8 OT DIIS     0.80E-01    1.4     0.00000933       -30.8589110723 -6.00E-08
     9 OT DIIS     0.80E-01    1.4     0.00000419       -30.8589110808 -8.47E-09
    10 OT DIIS     0.80E-01    1.4     0.00000197       -30.8589110827 -1.96E-09
    11 OT DIIS     0.80E-01    1.4     0.00000082       -30.8589110832 -4.82E-10

  *** SCF run converged in    11 steps ***


  Electronic density on regular grids:        -19.5698688295        0.4301311705
  Core density on regular grids:               20.0000000000       -0.0000000000
  Hard and soft densities (Lebedev):         -305.7671046911     -305.3369722958
  Total Rho_soft + Rho1_hard - Rho1_soft      -20.0000012248
  Total charge density (r-space):              -0.0000012248
  Total Rho_soft + Rho0_soft (g-space):        -0.0000012925

  Overlap energy of the core charge distribution:               0.00000228953804
  Self energy of the core charge distribution:                -76.65906668574564
  Core Hamiltonian energy:                                     23.15298591084437
  Hartree energy:                                              45.52185579504474
  Exchange-correlation energy:                                 -8.67978713126725
  Dispersion energy:                                           -0.00202330257466

  GAPW| Exc from hard and soft atomic rho1:                    -0.40219862585670
  GAPW| local Eh = 1 center integrals:                        -13.79067933318971

  Total energy:                                               -30.85891108320682

  outer SCF iter =    1 RMS gradient =   0.82E-06 energy =        -30.8589110832
  outer SCF loop converged in   1 iterations or   11 steps


 ENERGY| Total FORCE_EVAL ( QS ) energy [a.u.]:              -30.858911083269980

 ----  Informations at rotational step =     6 -----
  Optimization Method        =                   SD
  Local Curvature            =        -0.1113083766
  Total Rotational Force     =         0.0062341348
  Real Force change          =        -0.0000285092
  Decrease in rotational force =                 NO
  Used time                  =               18.370

  Convergence check :
  Predicted angle step size  =         0.5444299218
  Effective angle step size  =         0.1475810248
  Conv. limit for angle step size =    0.0087266463
  Convergence in angle step size   =             NO
 ---------------------------------------------------

 --------------------------
 OPTIMIZATION STEP:      7
 --------------------------

 Number of electrons:                                                         20
 Number of occupied orbitals:                                                 10
 Number of molecular orbitals:                                                10

 Number of orbital functions:                                                120
 Number of independent orbital functions:                                    120

 Extrapolation method: ASPC


 SCF WAVEFUNCTION OPTIMIZATION

  ----------------------------------- OT ---------------------------------------
  Minimizer      : DIIS                : direct inversion
                                         in the iterative subspace
                                         using   7 DIIS vectors
                                         safer DIIS on
  Preconditioner : FULL_SINGLE_INVERSE : inversion of 
                                         H + eS - 2*(Sc)(c^T*H*c+const)(Sc)^T
  Precond_solver : DEFAULT
  stepsize       :    0.08000000                  energy_gap     :    0.08000000
  eps_taylor     :   0.10000E-15                  max_taylor     :             4
  ----------------------------------- OT ---------------------------------------

  Step     Update method      Time    Convergence         Total energy    Change
  ------------------------------------------------------------------------------
     1 OT DIIS     0.80E-01    1.0     0.00345273       -30.8550920269 -3.09E+01
     2 OT DIIS     0.80E-01    1.4     0.00193183       -30.8557697306 -6.78E-04
     3 OT DIIS     0.80E-01    1.3     0.00112720       -30.8559727243 -2.03E-04
     4 OT DIIS     0.80E-01    1.3     0.00032869       -30.8561049254 -1.32E-04
     5 OT DIIS     0.80E-01    1.3     0.00014826       -30.8561152309 -1.03E-05
     6 OT DIIS     0.80E-01    1.4     0.00005172       -30.8561174763 -2.25E-06
     7 OT DIIS     0.80E-01    1.4     0.00002015       -30.8561177589 -2.83E-07
     8 OT DIIS     0.80E-01    1.5     0.00000776       -30.8561178035 -4.45E-08
     9 OT DIIS     0.80E-01    1.5     0.00000373       -30.8561178096 -6.13E-09
    10 OT DIIS     0.80E-01    1.4     0.00000170       -30.8561178113 -1.71E-09
    11 OT DIIS     0.80E-01    1.4     0.00000080       -30.8561178117 -3.63E-10

  *** SCF run converged in    11 steps ***


  Electronic density on regular grids:        -19.5681556671        0.4318443329
  Core density on regular grids:               20.0000000000       -0.0000000000
  Hard and soft densities (Lebedev):         -306.0353009576     -305.6034550436
  Total Rho_soft + Rho1_hard - Rho1_soft      -20.0000015811
  Total charge density (r-space):              -0.0000015811
  Total Rho_soft + Rho0_soft (g-space):        -0.0000016482

  Overlap energy of the core charge distribution:               0.00000259311291
  Self energy of the core charge distribution:                -76.65906668574564
  Core Hamiltonian energy:                                     23.17173512495325
  Hartree energy:                                              45.50663618140862
  Exchange-correlation energy:                                 -8.68267161503960
  Dispersion energy:                                           -0.00202451832872

  GAPW| Exc from hard and soft atomic rho1:                    -0.40402675953861
  GAPW| local Eh = 1 center integrals:                        -13.78670213247661

  Total energy:                                               -30.85611781165441

  outer SCF iter =    1 RMS gradient =   0.80E-06 energy =        -30.8561178117
  outer SCF loop converged in   1 iterations or   11 steps


 ENERGY| Total FORCE_EVAL ( QS ) energy [a.u.]:              -30.856117811711236

 ----  Informations at rotational step =     7 -----
  Optimization Method        =                   SD
  Local Curvature            =        -0.1333832732
  Total Rotational Force     =         0.0058579315
  Real Force change          =        -0.0003762033
  Decrease in rotational force =                YES
  Used time                  =               18.213

  Convergence check :
  Predicted angle step size  =         0.4908889106
  Effective angle step size  =         0.1395889800
  Conv. limit for angle step size =    0.0087266463
  Convergence in angle step size   =             NO
 ---------------------------------------------------

 --------------------------
 OPTIMIZATION STEP:      8
 --------------------------

 Number of electrons:                                                         20
 Number of occupied orbitals:                                                 10
 Number of molecular orbitals:                                                10

 Number of orbital functions:                                                120
 Number of independent orbital functions:                                    120

 Extrapolation method: ASPC


 SCF WAVEFUNCTION OPTIMIZATION

  ----------------------------------- OT ---------------------------------------
  Minimizer      : DIIS                : direct inversion
                                         in the iterative subspace
                                         using   7 DIIS vectors
                                         safer DIIS on
  Preconditioner : FULL_SINGLE_INVERSE : inversion of 
                                         H + eS - 2*(Sc)(c^T*H*c+const)(Sc)^T
  Precond_solver : DEFAULT
  stepsize       :    0.08000000                  energy_gap     :    0.08000000
  eps_taylor     :   0.10000E-15                  max_taylor     :             4
  ----------------------------------- OT ---------------------------------------

  Step     Update method      Time    Convergence         Total energy    Change
  ------------------------------------------------------------------------------
     1 OT DIIS     0.80E-01    1.0     0.00305500       -30.8578131403 -3.09E+01
     2 OT DIIS     0.80E-01    1.5     0.00174090       -30.8583458829 -5.33E-04
     3 OT DIIS     0.80E-01    1.4     0.00102443       -30.8585064762 -1.61E-04
     4 OT DIIS     0.80E-01    1.4     0.00030901       -30.8586128796 -1.06E-04
     5 OT DIIS     0.80E-01    1.7     0.00014191       -30.8586214457 -8.57E-06
     6 OT DIIS     0.80E-01    2.6     0.00004998       -30.8586234628 -2.02E-06
     7 OT DIIS     0.80E-01    1.8     0.00001924       -30.8586237215 -2.59E-07
     8 OT DIIS     0.80E-01    1.5     0.00000754       -30.8586237605 -3.91E-08
     9 OT DIIS     0.80E-01    1.5     0.00000344       -30.8586237661 -5.58E-09
    10 OT DIIS     0.80E-01    1.6     0.00000163       -30.8586237675 -1.35E-09
    11 OT DIIS     0.80E-01    1.4     0.00000070       -30.8586237678 -3.35E-10

  *** SCF run converged in    11 steps ***


  Electronic density on regular grids:        -19.5696848615        0.4303151385
  Core density on regular grids:               20.0000000000       -0.0000000000
  Hard and soft densities (Lebedev):         -305.7792679212     -305.3489515245
  Total Rho_soft + Rho1_hard - Rho1_soft      -20.0000012581
  Total charge density (r-space):              -0.0000012581
  Total Rho_soft + Rho0_soft (g-space):        -0.0000013260

  Overlap energy of the core charge distribution:               0.00000231868368
  Self energy of the core charge distribution:                -76.65906668574564
  Core Hamiltonian energy:                                     23.15508182606509
  Hartree energy:                                              45.52007706780019
  Exchange-correlation energy:                                 -8.68009345936117
  Dispersion energy:                                           -0.00202401115260

  GAPW| Exc from hard and soft atomic rho1:                    -0.40239268331553
  GAPW| local Eh = 1 center integrals:                        -13.79020814076833

  Total energy:                                               -30.85862376779432

  outer SCF iter =    1 RMS gradient =   0.70E-06 energy =        -30.8586237678
  outer SCF loop converged in   1 iterations or   11 steps


 ENERGY| Total FORCE_EVAL ( QS ) energy [a.u.]:              -30.858623767840303

 ----  Informations at rotational step =     8 -----
  Optimization Method        =                   SD
  Local Curvature            =        -0.1537813122
  Total Rotational Force     =         0.0052743591
  Real Force change          =        -0.0005835725
  Decrease in rotational force =                YES
  Used time                  =               20.717

  Convergence check :
  Predicted angle step size  =         0.4281475893
  Effective angle step size  =         0.1241472401
  Conv. limit for angle step size =    0.0087266463
  Convergence in angle step size   =             NO
 ---------------------------------------------------

 --------------------------
 OPTIMIZATION STEP:      9
 --------------------------

 Number of electrons:                                                         20
 Number of occupied orbitals:                                                 10
 Number of molecular orbitals:                                                10

 Number of orbital functions:                                                120
 Number of independent orbital functions:                                    120

 Extrapolation method: ASPC


 SCF WAVEFUNCTION OPTIMIZATION

  ----------------------------------- OT ---------------------------------------
  Minimizer      : DIIS                : direct inversion
                                         in the iterative subspace
                                         using   7 DIIS vectors
                                         safer DIIS on
  Preconditioner : FULL_SINGLE_INVERSE : inversion of 
                                         H + eS - 2*(Sc)(c^T*H*c+const)(Sc)^T
  Precond_solver : DEFAULT
  stepsize       :    0.08000000                  energy_gap     :    0.08000000
  eps_taylor     :   0.10000E-15                  max_taylor     :             4
  ----------------------------------- OT ---------------------------------------

  Step     Update method      Time    Convergence         Total energy    Change
  ------------------------------------------------------------------------------
     1 OT DIIS     0.80E-01    1.1     0.00271015       -30.8558552540 -3.09E+01
     2 OT DIIS     0.80E-01    1.5     0.00152024       -30.8562723610 -4.17E-04
     3 OT DIIS     0.80E-01    1.6     0.00088704       -30.8563974272 -1.25E-04
     4 OT DIIS     0.80E-01    1.4     0.00025933       -30.8564791815 -8.18E-05
     5 OT DIIS     0.80E-01    1.6     0.00011738       -30.8564855548 -6.37E-06
     6 OT DIIS     0.80E-01    1.6     0.00004093       -30.8564869629 -1.41E-06
     7 OT DIIS     0.80E-01    1.5     0.00001603       -30.8564871399 -1.77E-07
     8 OT DIIS     0.80E-01    1.7     0.00000626       -30.8564871680 -2.81E-08
     9 OT DIIS     0.80E-01    1.4     0.00000304       -30.8564871720 -4.01E-09
    10 OT DIIS     0.80E-01    1.4     0.00000140       -30.8564871731 -1.14E-09
    11 OT DIIS     0.80E-01    1.4     0.00000067       -30.8564871734 -2.54E-10

  *** SCF run converged in    11 steps ***


  Electronic density on regular grids:        -19.5683736248        0.4316263752
  Core density on regular grids:               20.0000000000       -0.0000000000
  Hard and soft densities (Lebedev):         -305.9748062047     -305.5431782991
  Total Rho_soft + Rho1_hard - Rho1_soft      -20.0000015303
  Total charge density (r-space):              -0.0000015303
  Total Rho_soft + Rho0_soft (g-space):        -0.0000015979

  Overlap energy of the core charge distribution:               0.00000254961729
  Self energy of the core charge distribution:                -76.65906668574564
  Core Hamiltonian energy:                                     23.16935544983294
  Hartree energy:                                              45.50847923460547
  Exchange-correlation energy:                                 -8.68227500520796
  Dispersion energy:                                           -0.00202500648768

  GAPW| Exc from hard and soft atomic rho1:                    -0.40379239509939
  GAPW| local Eh = 1 center integrals:                        -13.78716531491388

  Total energy:                                               -30.85648717339884

  outer SCF iter =    1 RMS gradient =   0.67E-06 energy =        -30.8564871734
  outer SCF loop converged in   1 iterations or   11 steps


 ENERGY| Total FORCE_EVAL ( QS ) energy [a.u.]:              -30.856487173436847

 ----  Informations at rotational step =     9 -----
  Optimization Method        =                   SD
  Local Curvature            =        -0.1702698331
  Total Rotational Force     =         0.0051365848
  Real Force change          =        -0.0001377743
  Decrease in rotational force =                YES
  Used time                  =               19.427

  Convergence check :
  Predicted angle step size  =         0.3697056387
  Effective angle step size  =         0.1230014616
  Conv. limit for angle step size =    0.0087266463
  Convergence in angle step size   =             NO
 ---------------------------------------------------

 --------------------------
 OPTIMIZATION STEP:     10
 --------------------------

 Number of electrons:                                                         20
 Number of occupied orbitals:                                                 10
 Number of molecular orbitals:                                                10

 Number of orbital functions:                                                120
 Number of independent orbital functions:                                    120

 Extrapolation method: ASPC


 SCF WAVEFUNCTION OPTIMIZATION

  ----------------------------------- OT ---------------------------------------
  Minimizer      : DIIS                : direct inversion
                                         in the iterative subspace
                                         using   7 DIIS vectors
                                         safer DIIS on
  Preconditioner : FULL_SINGLE_INVERSE : inversion of 
                                         H + eS - 2*(Sc)(c^T*H*c+const)(Sc)^T
  Precond_solver : DEFAULT
  stepsize       :    0.08000000                  energy_gap     :    0.08000000
  eps_taylor     :   0.10000E-15                  max_taylor     :             4
  ----------------------------------- OT ---------------------------------------

  Step     Update method      Time    Convergence         Total energy    Change
  ------------------------------------------------------------------------------
     1 OT DIIS     0.80E-01    1.1     0.00236276       -30.8579070843 -3.09E+01
     2 OT DIIS     0.80E-01    1.5     0.00134415       -30.8582252047 -3.18E-04
     3 OT DIIS     0.80E-01    1.6     0.00078954       -30.8583210612 -9.59E-05
     4 OT DIIS     0.80E-01    1.5     0.00023712       -30.8583845448 -6.35E-05
     5 OT DIIS     0.80E-01    1.4     0.00010884       -30.8583896240 -5.08E-06
     6 OT DIIS     0.80E-01    1.5     0.00003824       -30.8583908165 -1.19E-06
     7 OT DIIS     0.80E-01    1.6     0.00001484       -30.8583909686 -1.52E-07
     8 OT DIIS     0.80E-01    1.5     0.00000588       -30.8583909921 -2.34E-08
     9 OT DIIS     0.80E-01    1.4     0.00000274       -30.8583909955 -3.44E-09
    10 OT DIIS     0.80E-01    1.4     0.00000131       -30.8583909964 -8.75E-10
    11 OT DIIS     0.80E-01    1.4     0.00000058       -30.8583909966 -2.20E-10

  *** SCF run converged in    11 steps ***


  Electronic density on regular grids:        -19.5695330458        0.4304669542
  Core density on regular grids:               20.0000000000       -0.0000000000
  Hard and soft densities (Lebedev):         -305.7859977046     -305.3555294642
  Total Rho_soft + Rho1_hard - Rho1_soft      -20.0000012862
  Total charge density (r-space):              -0.0000012862
  Total Rho_soft + Rho0_soft (g-space):        -0.0000013541

  Overlap energy of the core charge distribution:               0.00000234250087
  Self energy of the core charge distribution:                -76.65906668574564
  Core Hamiltonian energy:                                     23.15671310362212
  Hartree energy:                                              45.51868471170677
  Exchange-correlation energy:                                 -8.68031942267850
  Dispersion energy:                                           -0.00202452242289

  GAPW| Exc from hard and soft atomic rho1:                    -0.40255375376368
  GAPW| local Eh = 1 center integrals:                        -13.78982676980895

  Total energy:                                               -30.85839099658990

  outer SCF iter =    1 RMS gradient =   0.58E-06 energy =        -30.8583909966
  outer SCF loop converged in   1 iterations or   11 steps


 ENERGY| Total FORCE_EVAL ( QS ) energy [a.u.]:              -30.858390996623051

 ----  Informations at rotational step =    10 -----
  Optimization Method        =                   SD
  Local Curvature            =        -0.1845926996
  Total Rotational Force     =         0.0042637488
  Real Force change          =        -0.0008728360
  Decrease in rotational force =                YES
  Used time                  =               18.857

  Convergence check :
  Predicted angle step size  =         0.3358855171
  Effective angle step size  =         0.1002403892
  Conv. limit for angle step size =    0.0087266463
  Convergence in angle step size   =             NO
 ---------------------------------------------------

 --------------------------
 OPTIMIZATION STEP:     11
 --------------------------

 Number of electrons:                                                         20
 Number of occupied orbitals:                                                 10
 Number of molecular orbitals:                                                10

 Number of orbital functions:                                                120
 Number of independent orbital functions:                                    120

 Extrapolation method: ASPC


 SCF WAVEFUNCTION OPTIMIZATION

  ----------------------------------- OT ---------------------------------------
  Minimizer      : DIIS                : direct inversion
                                         in the iterative subspace
                                         using   7 DIIS vectors
                                         safer DIIS on
  Preconditioner : FULL_SINGLE_INVERSE : inversion of 
                                         H + eS - 2*(Sc)(c^T*H*c+const)(Sc)^T
  Precond_solver : DEFAULT
  stepsize       :    0.08000000                  energy_gap     :    0.08000000
  eps_taylor     :   0.10000E-15                  max_taylor     :             4
  ----------------------------------- OT ---------------------------------------

  Step     Update method      Time    Convergence         Total energy    Change
  ------------------------------------------------------------------------------
     1 OT DIIS     0.80E-01    1.1     0.00207265       -30.8563985577 -3.09E+01
     2 OT DIIS     0.80E-01    1.5     0.00116485       -30.8566424464 -2.44E-04
     3 OT DIIS     0.80E-01    1.4     0.00067995       -30.8567156287 -7.32E-05
     4 OT DIIS     0.80E-01    1.4     0.00019943       -30.8567635868 -4.80E-05
     5 OT DIIS     0.80E-01    1.4     0.00009051       -30.8567673361 -3.75E-06
     6 OT DIIS     0.80E-01    1.4     0.00003160       -30.8567681736 -8.37E-07
     7 OT DIIS     0.80E-01    1.4     0.00001244       -30.8567682791 -1.06E-07
     8 OT DIIS     0.80E-01    1.4     0.00000492       -30.8567682961 -1.69E-08
     9 OT DIIS     0.80E-01    1.4     0.00000241       -30.8567682986 -2.49E-09
    10 OT DIIS     0.80E-01    1.4     0.00000113       -30.8567682993 -7.21E-10
    11 OT DIIS     0.80E-01    1.5     0.00000054       -30.8567682994 -1.67E-10

  *** SCF run converged in    11 steps ***


  Electronic density on regular grids:        -19.5685334053        0.4314665947
  Core density on regular grids:               20.0000000000       -0.0000000000
  Hard and soft densities (Lebedev):         -305.9355026572     -305.5040345693
  Total Rho_soft + Rho1_hard - Rho1_soft      -20.0000014931
  Total charge density (r-space):              -0.0000014931
  Total Rho_soft + Rho0_soft (g-space):        -0.0000015607

  Overlap energy of the core charge distribution:               0.00000251776296
  Self energy of the core charge distribution:                -76.65906668574564
  Core Hamiltonian energy:                                     23.16758332087787
  Hartree energy:                                              45.50984685757327
  Exchange-correlation energy:                                 -8.68198110175073
  Dispersion energy:                                           -0.00202524948576

  GAPW| Exc from hard and soft atomic rho1:                    -0.40362088637479
  GAPW| local Eh = 1 center integrals:                        -13.78750707230605

  Total energy:                                               -30.85676829944888

  outer SCF iter =    1 RMS gradient =   0.54E-06 energy =        -30.8567682994
  outer SCF loop converged in   1 iterations or   11 steps


 ENERGY| Total FORCE_EVAL ( QS ) energy [a.u.]:              -30.856768299473895

 ----  Informations at rotational step =    11 -----
  Optimization Method        =                   SD
  Local Curvature            =        -0.1960120410
  Total Rotational Force     =         0.0043674938
  Real Force change          =         0.0001037450
  Decrease in rotational force =                 NO
  Used time                  =               18.342

  Convergence check :
  Predicted angle step size  =         0.2748137640
  Effective angle step size  =         0.1046909794
  Conv. limit for angle step size =    0.0087266463
  Convergence in angle step size   =             NO
 ---------------------------------------------------

 --------------------------
 OPTIMIZATION STEP:     12
 --------------------------

 Number of electrons:                                                         20
 Number of occupied orbitals:                                                 10
 Number of molecular orbitals:                                                10

 Number of orbital functions:                                                120
 Number of independent orbital functions:                                    120

 Extrapolation method: ASPC


 SCF WAVEFUNCTION OPTIMIZATION

  ----------------------------------- OT ---------------------------------------
  Minimizer      : DIIS                : direct inversion
                                         in the iterative subspace
                                         using   7 DIIS vectors
                                         safer DIIS on
  Preconditioner : FULL_SINGLE_INVERSE : inversion of 
                                         H + eS - 2*(Sc)(c^T*H*c+const)(Sc)^T
  Precond_solver : DEFAULT
  stepsize       :    0.08000000                  energy_gap     :    0.08000000
  eps_taylor     :   0.10000E-15                  max_taylor     :             4
  ----------------------------------- OT ---------------------------------------

  Step     Update method      Time    Convergence         Total energy    Change
  ------------------------------------------------------------------------------
     1 OT DIIS     0.80E-01    1.0     0.00180027       -30.8579332635 -3.09E+01
     2 OT DIIS     0.80E-01    1.4     0.00102252       -30.8581177988 -1.85E-04
     3 OT DIIS     0.80E-01    1.5     0.00060000       -30.8581733789 -5.56E-05
     4 OT DIIS     0.80E-01    1.6     0.00017965       -30.8582101545 -3.68E-05
     5 OT DIIS     0.80E-01    1.7     0.00008240       -30.8582130878 -2.93E-06
     6 OT DIIS     0.80E-01    1.6     0.00002893       -30.8582137737 -6.86E-07
     7 OT DIIS     0.80E-01    1.6     0.00001130       -30.8582138611 -8.74E-08
     8 OT DIIS     0.80E-01    1.6     0.00000451       -30.8582138748 -1.36E-08
     9 OT DIIS     0.80E-01    1.6     0.00000214       -30.8582138768 -2.04E-09
    10 OT DIIS     0.80E-01    1.4     0.00000103       -30.8582138773 -5.41E-10
    11 OT DIIS     0.80E-01    1.3     0.00000046       -30.8582138775 -1.36E-10

  *** SCF run converged in    11 steps ***


  Electronic density on regular grids:        -19.5694106787        0.4305893213
  Core density on regular grids:               20.0000000000       -0.0000000000
  Hard and soft densities (Lebedev):         -305.7965484645     -305.3659578346
  Total Rho_soft + Rho1_hard - Rho1_soft      -20.0000013086
  Total charge density (r-space):              -0.0000013086
  Total Rho_soft + Rho0_soft (g-space):        -0.0000013764

  Overlap energy of the core charge distribution:               0.00000236134963
  Self energy of the core charge distribution:                -76.65906668574564
  Core Hamiltonian energy:                                     23.15801080210965
  Hartree energy:                                              45.51757292518467
  Exchange-correlation energy:                                 -8.68050246120943
  Dispersion energy:                                           -0.00202481081201

  GAPW| Exc from hard and soft atomic rho1:                    -0.40268382124117
  GAPW| local Eh = 1 center integrals:                        -13.78952218711991

  Total energy:                                               -30.85821387748420

  outer SCF iter =    1 RMS gradient =   0.46E-06 energy =        -30.8582138775
  outer SCF loop converged in   1 iterations or   11 steps


 ENERGY| Total FORCE_EVAL ( QS ) energy [a.u.]:              -30.858213877505534

 ----  Informations at rotational step =    12 -----
  Optimization Method        =                   SD
  Local Curvature            =        -0.2056652393
  Total Rotational Force     =         0.0034138889
  Real Force change          =        -0.0009536049
  Decrease in rotational force =                YES
  Used time                  =               19.633

  Convergence check :
  Predicted angle step size  =         0.2659603558
  Effective angle step size  =         0.0803351182
  Conv. limit for angle step size =    0.0087266463
  Convergence in angle step size   =             NO
 ---------------------------------------------------

 --------------------------
 OPTIMIZATION STEP:     13
 --------------------------

 Number of electrons:                                                         20
 Number of occupied orbitals:                                                 10
 Number of molecular orbitals:                                                10

 Number of orbital functions:                                                120
 Number of independent orbital functions:                                    120

 Extrapolation method: ASPC


 SCF WAVEFUNCTION OPTIMIZATION

  ----------------------------------- OT ---------------------------------------
  Minimizer      : DIIS                : direct inversion
                                         in the iterative subspace
                                         using   7 DIIS vectors
                                         safer DIIS on
  Preconditioner : FULL_SINGLE_INVERSE : inversion of 
                                         H + eS - 2*(Sc)(c^T*H*c+const)(Sc)^T
  Precond_solver : DEFAULT
  stepsize       :    0.08000000                  energy_gap     :    0.08000000
  eps_taylor     :   0.10000E-15                  max_taylor     :             4
  ----------------------------------- OT ---------------------------------------

  Step     Update method      Time    Convergence         Total energy    Change
  ------------------------------------------------------------------------------
     1 OT DIIS     0.80E-01    1.0     0.00157835       -30.8567501280 -3.09E+01
     2 OT DIIS     0.80E-01    1.4     0.00088816       -30.8568916079 -1.41E-04
     3 OT DIIS     0.80E-01    1.3     0.00051877       -30.8569340837 -4.25E-05
     4 OT DIIS     0.80E-01    1.4     0.00015257       -30.8569619567 -2.79E-05
     5 OT DIIS     0.80E-01    1.4     0.00006938       -30.8569641422 -2.19E-06
     6 OT DIIS     0.80E-01    1.4     0.00002425       -30.8569646341 -4.92E-07
     7 OT DIIS     0.80E-01    1.3     0.00000956       -30.8569646962 -6.21E-08
     8 OT DIIS     0.80E-01    1.3     0.00000381       -30.8569647062 -1.00E-08
     9 OT DIIS     0.80E-01    1.4     0.00000187       -30.8569647077 -1.49E-09
    10 OT DIIS     0.80E-01    1.3     0.00000088       -30.8569647081 -4.33E-10

  *** SCF run converged in    10 steps ***


  Electronic density on regular grids:        -19.5686378855        0.4313621145
  Core density on regular grids:               20.0000000000       -0.0000000000
  Hard and soft densities (Lebedev):         -305.9143466383     -305.4829830556
  Total Rho_soft + Rho1_hard - Rho1_soft      -20.0000014682
  Total charge density (r-space):              -0.0000014682
  Total Rho_soft + Rho0_soft (g-space):        -0.0000015359

  Overlap energy of the core charge distribution:               0.00000249649363
  Self energy of the core charge distribution:                -76.65906668574564
  Core Hamiltonian energy:                                     23.16642294615488
  Hartree energy:                                              45.51073108847787
  Exchange-correlation energy:                                 -8.68179155204176
  Dispersion energy:                                           -0.00202532035295

  GAPW| Exc from hard and soft atomic rho1:                    -0.40350890642421
  GAPW| local Eh = 1 center integrals:                        -13.78772877467319

  Total energy:                                               -30.85696470811139

  outer SCF iter =    1 RMS gradient =   0.88E-06 energy =        -30.8569647081
  outer SCF loop converged in   1 iterations or   10 steps


 ENERGY| Total FORCE_EVAL ( QS ) energy [a.u.]:              -30.856964708211869

 ----  Informations at rotational step =    13 -----
  Optimization Method        =                   SD
  Local Curvature            =        -0.2134528406
  Total Rotational Force     =         0.0036973457
  Real Force change          =         0.0002834568
  Decrease in rotational force =                 NO
  Used time                  =               16.313

  Convergence check :
  Predicted angle step size  =         0.2071198004
  Effective angle step size  =         0.0884885268
  Conv. limit for angle step size =    0.0087266463
  Convergence in angle step size   =             NO
 ---------------------------------------------------

 --------------------------
 OPTIMIZATION STEP:     14
 --------------------------

 Number of electrons:                                                         20
 Number of occupied orbitals:                                                 10
 Number of molecular orbitals:                                                10

 Number of orbital functions:                                                120
 Number of independent orbital functions:                                    120

 Extrapolation method: ASPC


 SCF WAVEFUNCTION OPTIMIZATION

  ----------------------------------- OT ---------------------------------------
  Minimizer      : DIIS                : direct inversion
                                         in the iterative subspace
                                         using   7 DIIS vectors
                                         safer DIIS on
  Preconditioner : FULL_SINGLE_INVERSE : inversion of 
[...]
    10 OT DIIS     0.80E-01    1.3     0.00000104       -30.8788972466 -1.00E-09
    11 OT DIIS     0.80E-01    1.3     0.00000051       -30.8788972467 -1.09E-10

  *** SCF run converged in    11 steps ***


  Electronic density on regular grids:        -19.5848273643        0.4151726357
  Core density on regular grids:               20.0000000000       -0.0000000000
  Hard and soft densities (Lebedev):         -321.6878593238     -321.2726868952
  Total Rho_soft + Rho1_hard - Rho1_soft      -19.9999997930
  Total charge density (r-space):               0.0000002070
  Total Rho_soft + Rho0_soft (g-space):         0.0000001400

  Overlap energy of the core charge distribution:               0.00000142128929
  Self energy of the core charge distribution:                -76.65906668574564
  Core Hamiltonian energy:                                     23.05489041513092
  Hartree energy:                                              45.60710973235275
  Exchange-correlation energy:                                 -8.67303868187204
  Dispersion energy:                                           -0.00188945912951

  GAPW| Exc from hard and soft atomic rho1:                    -0.38659314864026
  GAPW| local Eh = 1 center integrals:                        -13.82031084006624

  Total energy:                                               -30.87889724668075

  outer SCF iter =    1 RMS gradient =   0.51E-06 energy =        -30.8788972467
  outer SCF loop converged in   1 iterations or   11 steps


 ENERGY| Total FORCE_EVAL ( QS ) energy [a.u.]:              -30.878897246708291

 ----  Informations at rotational step =     1 -----
  Optimization Method        =                   SD
  Local Curvature            =        -0.2459973558
  Total Rotational Force     =         0.0001302099
  Real Force change          =        -0.0001030657
  Decrease in rotational force =                YES
  Used time                  =               17.085

  Convergence check :
  Predicted angle step size  =         0.0125449716
  Effective angle step size  =         0.0074227316
  Conv. limit for angle step size =    0.0087266463
  Convergence in angle step size   =            YES
 ---------------------------------------------------

 *******************************************************************************
 ***                    ROTATION OPTIMIZATION COMPLETED                      ***
 *******************************************************************************
 DIMER| Correcting gradients for Translation with standard method

 ROT| Rotational analysis information
 ROT| Principal axes and moments of inertia [a.u.]
 ROT|                           1                   2                   3
 ROT| Eigenvalues      3.35595849401E+01   5.55393541640E+01   6.32463094193E+01
 ROT|      x              0.965510478327      0.167288357425     -0.199509703300
 ROT|      y              0.148834144073     -0.983349894610     -0.104265921223
 ROT|      z              0.213630320411     -0.070975983548      0.974332846598
 ROT| Number of rotovibrational vectors                                        6

 -------------------------------------------------------------------------------
 -                                                                             -
 -                                DBCSR STATISTICS                             -
 -                                                                             -
 -------------------------------------------------------------------------------
 COUNTER                                    TOTAL       BLAS       SMM       ACC
 flops     9 x    10 x    10              1036800     100.0%      0.0%      0.0%
 flops    22 x    10 x    10              1267200     100.0%      0.0%      0.0%
 flops    10 x    10 x    10             15018000     100.0%      0.0%      0.0%
 flops     9 x     9 x    10             44089920     100.0%      0.0%      0.0%
 flops    22 x     9 x    10             46189440     100.0%      0.0%      0.0%
 flops     9 x    22 x    10             46189440     100.0%      0.0%      0.0%
 flops    22 x    22 x    10             75271680     100.0%      0.0%      0.0%
 flops    10 x    10 x   120             96768000     100.0%      0.0%      0.0%
 flops   120 x    10 x    10            118656000     100.0%      0.0%      0.0%
 flops     9 x    10 x     9            167145120     100.0%      0.0%      0.0%
 flops    22 x    10 x     9            204288480     100.0%      0.0%      0.0%
 flops     9 x    10 x    22            204288480     100.0%      0.0%      0.0%
 flops    22 x    10 x    22            249685920     100.0%      0.0%      0.0%
 flops   120 x    10 x   120            317952000     100.0%      0.0%      0.0%
 flops inhomo. stacks                           0       0.0%      0.0%      0.0%
 flops total                         1.587846E+09     100.0%      0.0%      0.0%
 flops max/rank                      1.587846E+09     100.0%      0.0%      0.0%
 matmuls inhomo. stacks                         0       0.0%      0.0%      0.0%
 matmuls total                             308919     100.0%      0.0%      0.0%
 number of processed stacks                 34429     100.0%      0.0%      0.0%
 average stack size                                     9.0       0.0       0.0
 marketing flops                     1.751965E+09
 -------------------------------------------------------------------------------
 # multiplications                          21943
 max memory usage/rank             723.263488E+06
 # max total images/rank                        1
 # max 3D layers                                1
 # MPI messages exchanged                       0
 -------------------------------------------------------------------------------
 -                                                                             -
 -                      DBCSR MESSAGE PASSING PERFORMANCE                      -
 -                                                                             -
 -------------------------------------------------------------------------------
 ROUTINE             CALLS      AVE VOLUME [Bytes]
 MP_Bcast               15                     12.
 MP_Allreduce       115022                      8.
 MP_Alltoall         79766                   3168.
 MP_ISend            87388                    237.
 MP_IRecv            87388                    237.
 -------------------------------------------------------------------------------

 -------------------------------------------------------------------------------
 -                                                                             -
 -                                GRID STATISTICS                              -
 -                                                                             -
 -------------------------------------------------------------------------------
 LP    KERNEL             BACKEND                              COUNT     PERCENT
 2     collocate ortho    REF                                4262712      25.25%
 2     integrate ortho    REF                                3892043      23.05%
 3     integrate ortho    REF                                3341259      19.79%
 3     collocate ortho    REF                                3253505      19.27%
 4     integrate ortho    REF                                1118223       6.62%
 4     collocate ortho    REF                                 914861       5.42%
 5     integrate ortho    REF                                  79553       0.47%
 2     collocate general  REF                                   9936       0.06%
 2     integrate general  REF                                   9072       0.05%
 3     integrate general  REF                                    864       0.01%
 -------------------------------------------------------------------------------

 MEMORY| Estimated peak process memory [MiB]                                 690

 -------------------------------------------------------------------------------
 ----                             MULTIGRID INFO                            ----
 -------------------------------------------------------------------------------
 count for grid        1:          95188          cutoff [a.u.]          200.00
 count for grid        2:         114107          cutoff [a.u.]           66.67
 count for grid        3:         139649          cutoff [a.u.]           22.22
 count for grid        4:         471269          cutoff [a.u.]            7.41
 total gridlevel count  :         820213

 -------------------------------------------------------------------------------
 -                                                                             -
 -                         MESSAGE PASSING PERFORMANCE                         -
 -                                                                             -
 -------------------------------------------------------------------------------

 ROUTINE             CALLS      AVE VOLUME [Bytes]
 MP_Group                4
 MP_Bcast            32523                   9487.
 MP_Allreduce        62760                   4891.
 MP_Sync                15
 -------------------------------------------------------------------------------


 -------------------------------------------------------------------------------
 -                                                                             -
 -                           R E F E R E N C E S                               -
 -                                                                             -
 -------------------------------------------------------------------------------
 
 CP2K version 9.1, the CP2K developers group (2021).
 CP2K is freely available from https://www.cp2k.org/ .

 Kuehne,Thomas D.; Iannuzzi,Marcella; Del Ben,Mauro;
 Rybkin,Vladimir V.; Seewald,Patrick; Stein,Frederick; Laino,Teodoro;
 Khaliullin,Rustam Z.; Schuett,Ole; Schiffmann,Florian; Golze,Dorothea;
 Wilhelm,Jan; Chulkov,Sergey; Bani-Hashemian,Mohammad Hossein;
 Weber,Valery; Borstnik,Urban; Taillefumier,Mathieu;
 Jakobovits,Alice Shoshana; Lazzaro,Alfio; Pabst,Hans; Mueller,Tiziano;
 Schade,Robert; Guidon,Manuel; Andermatt,Samuel; Holmberg,Nico;
 Schenter,Gregory K.; Hehn,Anna; Bussy,Augustin; Belleflamme,Fabian;
 Tabacchi,Gloria; Gloess,Andreas; Lass,Michael; Bethune,Iain;
 Mundy,Christopher J.; Plessl,Christian; Watkins,Matt;
 VandeVondele,Joost; Krack,Matthias; Hutter,Juerg. 
 The Journal of Chemical Physics, 152 (19), (2020). 
 CP2K: An electronic structure and molecular dynamics software package -
 Quickstep: Efficient and accurate electronic structure calculations.
 https://doi.org/10.1063/5.0007045

 Goerigk, Lars; Hansen, Andreas; Bauer, Christoph; Ehrlich, Stephan;
 Najibi, Asim; Grimme, Stefan. , 19 (48), (2017). 
 A look at the density functional theory zoo with the advanced GMTKN55 database
 for general main group thermochemistry, kinetics and noncovalent interactions.
 https://doi.org/10.1039/C7CP04913G

 Schuett, Ole; Messmer, Peter; Hutter, Juerg; VandeVondele, Joost. 
 Electronic Structure Calculations on Graphics Processing Units, John
 Wiley & Sons, Ltd, 173-190 (2016). 
 GPU-Accelerated Sparse Matrix-Matrix Multiplication for
 Linear Scaling Density Functional Theory.
 https://doi.org/10.1002/9781118670712.ch8

 Borstnik, U; VandeVondele, J; Weber, V; Hutter, J. 
 PARALLEL COMPUTING, 40 (5-6), 47-58 (2014). 
 Sparse matrix multiplication: The distributed block-compressed sparse
 row library.
 https://doi.org/10.1016/j.parco.2014.03.012

 Hutter, J; Iannuzzi, M; Schiffmann, F; VandeVondele, J. 
 WIREs Comput Mol Sci., 4 (1), 15-25 (2014). 
 CP2K: atomistic simulations of condensed matter systems.
 https://doi.org/10.1002/wcms.1159

 Marek, A; Blum, V; Johanni, R; Havu, V; Lang, B; Auckenthaler, T;
 Heinecke, A; Bungartz, H; Lederer, H. 
 Journal of Physics: Condensed Matter, 26 (21), (2014). 
 The ELPA library: scalable parallel eigenvalue solutions for
 electronic structure
 theory and computational science.
 https://doi.org/10.1088/0953-8984/26/21/213201

 Grimme, S; Ehrlich, S; Goerigk, L. 
 JOURNAL OF COMPUTATIONAL CHEMISTRY, 32, 1456 (2011). 
 Effect of the damping function in dispersion corrected density functional theory.
 https://doi.org/10.1002/jcc.21759

 Grimme, S; Antony, J; Ehrlich, S; Krieg, H. 
 JOURNAL OF CHEMICAL PHYSICS, 132 (15), 154104 (2010). 
 A consistent and accurate ab initio parametrization of density
 functional dispersion correction (DFT-D) for the 94 elements H-Pu.
 https://doi.org/10.1063/1.3382344

 VandeVondele, J; Hutter, J. 
 JOURNAL OF CHEMICAL PHYSICS, 127 (11), 114105 (2007). 
 Gaussian basis sets for accurate calculations on molecular systems in
 gas and condensed phases.
 https://doi.org/10.1063/1.2770708

 Kuhne, TD; Krack, M; Mohamed, FR; Parrinello, M. 
 PHYSICAL REVIEW LETTERS, 98 (6), 066401 (2007). 
 Efficient and accurate Car-Parrinello-like approach to
 Born-Oppenheimer molecular dynamics.
 https://doi.org/10.1103/PhysRevLett.98.066401

 Krack, M. 
 THEORETICAL CHEMISTRY ACCOUNTS, 114 (1-3), 145-152 (2005). 
 Pseudopotentials for H to Kr optimized for gradient-corrected
 exchange-correlation functionals.
 https://doi.org/10.1007/s00214-005-0655-y

 Frigo, M; Johnson, SG. 
 PROCEEDINGS OF THE IEEE, 93 (2), 216-231 (2005). 
 The design and implementation of FFTW3.
 https://doi.org/10.1109/JPROC.2004.840301

 Kolafa, J. 
 JOURNAL OF COMPUTATIONAL CHEMISTRY, 25 (3), 335-342 (2004). 
 Time-reversible always stable predictor-corrector method for
 molecular dynamics of polarizable molecules.
 https://doi.org/10.1002/jcc.10385

 VandeVondele, J; Hutter, J. 
 JOURNAL OF CHEMICAL PHYSICS, 118 (10), 4365-4369 (2003). 
 An efficient orbital transformation method for electronic structure
 calculations.
 https://doi.org/10.1063/1.1543154

 Lippert, G; Hutter, J; Parrinello, M. 
 THEORETICAL CHEMISTRY ACCOUNTS, 103 (2), 124-140 (1999). 
 The Gaussian and augmented-plane-wave density functional method for ab
 initio molecular dynamics simulations.
 https://doi.org/10.1007/s002140050523

 Krack, M; Parrinello, M. 
 PHYSICAL CHEMISTRY CHEMICAL PHYSICS, 2 (10), 2105-2112 (2000). 
 All-electron ab-initio molecular dynamics.
 https://doi.org/10.1039/b001167n

 Henkelman, G; Jonsson, H. 
 JOURNAL OF CHEMICAL PHYSICS, 111 (15), 7010-7022 (1999). 
 A dimer method for finding saddle points on high dimensional potential
 surfaces using only first derivatives.
 https://doi.org/10.1063/1.480097

 Hartwigsen, C; Goedecker, S; Hutter, J. 
 PHYSICAL REVIEW B, 58 (7), 3641-3662 (1998). 
 Relativistic separable dual-space Gaussian pseudopotentials from H to Rn.
 https://doi.org/10.1103/PhysRevB.58.3641

 Perdew, JP; Burke, K; Ernzerhof, M. 
 PHYSICAL REVIEW LETTERS, 77 (18), 3865-3868 (1996). 
 Generalized gradient approximation made simple.
 https://doi.org/10.1103/PhysRevLett.77.3865

 Goedecker, S; Teter, M; Hutter, J. 
 PHYSICAL REVIEW B, 54 (3), 1703-1710 (1996). 
 Separable dual-space Gaussian pseudopotentials.
 https://doi.org/10.1103/PhysRevB.54.1703


 -------------------------------------------------------------------------------
 -                                                                             -
 -                                T I M I N G                                  -
 -                                                                             -
 -------------------------------------------------------------------------------
 SUBROUTINE                       CALLS  ASD         SELF TIME        TOTAL TIME
                                MAXIMUM       AVERAGE  MAXIMUM  AVERAGE  MAXIMUM
 CP2K                                 1  1.0    0.012    0.012 1667.078 1667.078
 cp_geo_opt                           1  2.0    0.000    0.000 1666.778 1666.778
 geoopt_cg                           10  7.5    0.001    0.001 1666.778 1666.778
 cp_cg_main                          10  8.5    0.007    0.007 1666.778 1666.778
 cp_eval_at                         150 10.2    0.001    0.001 1666.772 1666.772
 cp_eval_at_ts                      150 11.2    0.004    0.004 1666.771 1666.771
 cp_eval_at_ts_low                   96 12.3    0.013    0.013 1666.722 1666.722
 qs_forces                           96 13.3    0.010    0.010 1666.707 1666.707
 qs_energies                         96 14.3    0.012    0.012 1451.624 1451.624
 scf_env_do_scf                      96 15.3    0.006    0.006 1391.121 1391.121
 cg_linmin                           71  9.4    0.000    0.000 1332.281 1332.281
 scf_env_do_scf_inner_loop         1008 16.2    0.064    0.064 1294.081 1294.081
 rebuild_ks_matrix                 1104 18.0    0.002    0.002 1213.783 1213.783
 qs_ks_build_kohn_sham_matrix      1104 19.0    0.145    0.145 1213.781 1213.781
 cp_rot_opt                           9  7.0    0.000    0.000 1207.622 1207.622
 rotmin_2pnt                         63 11.0    0.001    0.001 1051.323 1051.323
 qs_ks_update_qs_env               1104 17.2    0.005    0.005 1010.382 1010.382
 qs_vxc_create                     1104 20.0    0.013    0.013  499.301  499.301
 xc_vxc_pw_create                  1104 21.0   12.606   12.606  499.287  499.287
 qs_rho_update_rho                 1104 17.3    0.012    0.012  412.693  412.693
 sum_up_and_integrate              1104 20.0    0.988    0.988  401.010  401.010
 integrate_v_rspace                1104 21.0    0.048    0.048  400.020  400.020
 xc_rho_set_and_dset_create        1104 22.0    1.690    1.690  370.276  370.276
 grid_integrate_task_list          1104 22.0  364.407  364.407  364.407  364.407
 pw_transfer                      23184 21.7    0.669    0.669  320.298  320.298
 fft_wrap_pw1pw2                  19872 22.8    0.089    0.089  315.581  315.581
 fft_wrap_pw1pw2_200              13248 23.9   12.739   12.739  304.999  304.999
 xc_functional_eval               20976 22.0    0.030    0.030  294.896  294.896
 pbe_lda_eval                     20976 23.0  294.866  294.866  294.866  294.866
 tslmin_2pnt                          8  6.0    0.000    0.000  280.958  280.958
 calculate_rho_elec                1104 18.3    6.617    6.617  276.406  276.406
 grid_collocate_task_list          1104 19.3  208.745  208.745  208.745  208.745
 qs_ks_update_qs_env_forces          96 14.3    0.000    0.000  203.433  203.433
 fft3d_s                          19873 24.8  200.635  200.635  200.665  200.665
 update_ks_atom                    1104 20.0  193.097  193.097  193.109  193.109
 calculate_rho_atom_coeff          1104 18.3  136.264  136.264  136.275  136.275
 init_scf_loop                       96 16.3    0.002    0.002   97.025   97.025
 pw_gather_s                       9936 24.4   64.268   64.268   64.268   64.268
 density_rs2pw                     1104 19.3    0.027    0.027   61.044   61.044
 prepare_gapw_den                  1104 20.0    0.012    0.012   51.234   51.234
 put_rho0_on_grid                  1104 21.0    6.744    6.744   40.040   40.040
 pw_scatter_s                      9936 25.2   37.246   37.246   37.246   37.246
 init_scf_run                        96 15.3    0.003    0.003   36.877   36.877
 scf_env_initial_rho_setup           96 16.3    0.001    0.001   36.874   36.874
 wfi_extrapolate                     96 17.3    0.004    0.004   35.983   35.983
 potential_pw2rs                   1104 22.0    0.187    0.187   35.565   35.565
 -------------------------------------------------------------------------------

 The number of warnings for this run is : 0
 
 -------------------------------------------------------------------------------
  **** **** ******  **  PROGRAM ENDED AT                 2025-04-01 20:53:59.530
 ***** ** ***  *** **   PROGRAM RAN ON                              66be7c4ddfac
 **    ****   ******    PROGRAM RAN BY                                 <unknown>
 ***** **    ** ** **   PROGRAM PROCESS ID                                 44266
  **** **  *******  **  PROGRAM STOPPED IN /home/jovyan/MMM_2025/Exercise_07/ts_
                                           OPT
